 Entering Gaussian System, Link 0=g16
 Initial command:
 /public/software/g16-c01AVX2/g16/l1.exe "/public/home/QZX_HG/tmp/Gau-110246.inp" -scrdir="/public/home/QZX_HG/tmp/"
 Entering Link 1 = /public/software/g16-c01AVX2/g16/l1.exe PID=    110248.
  
 Copyright (c) 1988-2019, Gaussian, Inc.  All Rights Reserved.
  
 This is part of the Gaussian(R) 16 program.  It is based on
 the Gaussian(R) 09 system (copyright 2009, Gaussian, Inc.),
 the Gaussian(R) 03 system (copyright 2003, Gaussian, Inc.),
 the Gaussian(R) 98 system (copyright 1998, Gaussian, Inc.),
 the Gaussian(R) 94 system (copyright 1995, Gaussian, Inc.),
 the Gaussian 92(TM) system (copyright 1992, Gaussian, Inc.),
 the Gaussian 90(TM) system (copyright 1990, Gaussian, Inc.),
 the Gaussian 88(TM) system (copyright 1988, Gaussian, Inc.),
 the Gaussian 86(TM) system (copyright 1986, Carnegie Mellon
 University), and the Gaussian 82(TM) system (copyright 1983,
 Carnegie Mellon University). Gaussian is a federally registered
 trademark of Gaussian, Inc.
  
 This software contains proprietary and confidential information,
 including trade secrets, belonging to Gaussian, Inc.
  
 This software is provided under written license and may be
 used, copied, transmitted, or stored only in accord with that
 written license.
  
 The following legend is applicable only to US Government
 contracts under FAR:
  
                    RESTRICTED RIGHTS LEGEND
  
 Use, reproduction and disclosure by the US Government is
 subject to restrictions as set forth in subparagraphs (a)
 and (c) of the Commercial Computer Software - Restricted
 Rights clause in FAR 52.227-19.
  
 Gaussian, Inc.
 340 Quinnipiac St., Bldg. 40, Wallingford CT 06492
  
  
 ---------------------------------------------------------------
 Warning -- This program may not be used in any manner that
 competes with the business of Gaussian, Inc. or will provide
 assistance to any competitor of Gaussian, Inc.  The licensee
 of this program is prohibited from giving any competitor of
 Gaussian, Inc. access to this program.  By using this program,
 the user acknowledges that Gaussian, Inc. is engaged in the
 business of creating and licensing software in the field of
 computational chemistry and represents and warrants to the
 licensee that it is not a competitor of Gaussian, Inc. and that
 it will not use this program in any manner prohibited above.
 ---------------------------------------------------------------
  

 Cite this work as:
 Gaussian 16, Revision C.01,
 M. J. Frisch, G. W. Trucks, H. B. Schlegel, G. E. Scuseria, 
 M. A. Robb, J. R. Cheeseman, G. Scalmani, V. Barone, 
 G. A. Petersson, H. Nakatsuji, X. Li, M. Caricato, A. V. Marenich, 
 J. Bloino, B. G. Janesko, R. Gomperts, B. Mennucci, H. P. Hratchian, 
 J. V. Ortiz, A. F. Izmaylov, J. L. Sonnenberg, D. Williams-Young, 
 F. Ding, F. Lipparini, F. Egidi, J. Goings, B. Peng, A. Petrone, 
 T. Henderson, D. Ranasinghe, V. G. Zakrzewski, J. Gao, N. Rega, 
 G. Zheng, W. Liang, M. Hada, M. Ehara, K. Toyota, R. Fukuda, 
 J. Hasegawa, M. Ishida, T. Nakajima, Y. Honda, O. Kitao, H. Nakai, 
 T. Vreven, K. Throssell, J. A. Montgomery, Jr., J. E. Peralta, 
 F. Ogliaro, M. J. Bearpark, J. J. Heyd, E. N. Brothers, K. N. Kudin, 
 V. N. Staroverov, T. A. Keith, R. Kobayashi, J. Normand, 
 K. Raghavachari, A. P. Rendell, J. C. Burant, S. S. Iyengar, 
 J. Tomasi, M. Cossi, J. M. Millam, M. Klene, C. Adamo, R. Cammi, 
 J. W. Ochterski, R. L. Martin, K. Morokuma, O. Farkas, 
 J. B. Foresman, and D. J. Fox, Gaussian, Inc., Wallingford CT, 2019.
 
 ******************************************
 Gaussian 16:  ES64L-G16RevC.01  3-Jul-2019
                25-Jun-2021 
 ******************************************
 %nprocshared=32
 Will use up to   32 processors via shared memory.
 %mem=60GB
 ----------------------------------------------------------------------
 #p irc=(lqa,reverse,calcfc,maxpoints=300,recalc=30,stepsize=3) b3lyp/6
 -31g(d) g09def g09def
 ----------------------------------------------------------------------
 1/10=4,18=10,22=2,26=3,38=1,39=3,42=300,44=3,45=2,71=30,172=1/1,23;
 2/12=2,17=6,18=5,29=1,40=1/2;
 3/5=1,6=6,7=1,11=2,25=1,30=1,71=2,74=-5,140=1/1,2,3;
 4//1;
 5/5=2,38=5/2;
 8/6=4,10=90,11=11/1;
 11/6=1,8=1,9=11,15=111,16=1/1,2,10;
 10/6=1,13=1/2;
 6/7=2,8=2,9=2,10=2,28=1/1;
 7/10=1,25=1/1,2,3,16;
 1/10=4,18=10,22=2,26=3,39=3,42=300,44=3,45=2,71=30/23(2);
 2/29=1/2;
 99/5=20/99;
 2/29=1/2;
 3/5=1,6=6,7=1,11=2,25=1,30=1,71=2,74=-5,140=1/1,2,3;
 4/5=5,16=3,69=1/1;
 5/5=2,38=5/2;
 8/6=4,10=90,11=11/1;
 11/6=1,8=1,9=11,15=111,16=1/1,2,10;
 10/6=1,13=1/2;
 7/10=1,25=1/1,2,3,16;
 1/18=10,22=2,26=3,39=3,42=300,44=3,45=2,71=30/23(-8);
 2/29=1/2;
 6/7=2,8=2,9=2,10=2,19=2,28=1/1;
 99/5=20,9=1/99;
 Leave Link    1 at Fri Jun 25 15:38:59 2021, MaxMem=  8053063680 cpu:               1.3 elap:               0.0
 (Enter /public/software/g16-c01AVX2/g16/l101.exe)
 ---
 Int
 ---
 Symbolic Z-matrix:
 Charge =  0 Multiplicity = 1
 C                     1.85856  -0.80107   0.42885 
 H                     1.78089  -1.29776   1.40243 
 H                     2.7889   -1.14836  -0.04859 
 C                     0.60513   0.13627  -1.36715 
 H                     0.19559   0.16342  -2.36874 
 C                     0.6529   -1.06723  -0.49281 
 H                     0.66036  -2.02607  -1.01877 
 C                     1.30465   1.16326  -0.72805 
 H                     1.32892   2.19595  -1.06387 
 C                     1.82038   0.70367   0.47362 
 H                     2.3681    1.30324   1.19316 
 C                    -0.60507   0.13641   1.36709 
 C                    -0.65284  -1.06718   0.49289 
 C                    -1.82048   0.70358  -0.47365 
 H                    -0.19554   0.16366   2.36869 
 H                    -0.66026  -2.02596   1.01896 
 H                    -2.36826   1.30306  -1.19321 
 C                    -1.30468   1.16331   0.72793 
 H                    -1.32899   2.19602   1.06367 
 C                    -1.85854  -0.80116  -0.42876 
 H                    -1.7809   -1.29792  -1.4023 
 H                    -2.78885  -1.14847   0.04875 
 
 ITRead=  0  0  0  0  0  0  0  0  0  0  0  0  0  0  0  0  0  0  0  0
 ITRead=  0  0
 MicOpt= -1 -1 -1 -1 -1 -1 -1 -1 -1 -1 -1 -1 -1 -1 -1 -1 -1 -1 -1 -1
 MicOpt= -1 -1
 NAtoms=     22 NQM=       22 NQMF=       0 NMMI=      0 NMMIF=      0
                NMic=       0 NMicF=      0.
                    Isotopes and Nuclear Properties:
 (Nuclear quadrupole moments (NQMom) in fm**2, nuclear magnetic moments (NMagM)
  in nuclear magnetons)

  Atom         1           2           3           4           5           6           7           8           9          10
 IAtWgt=          12           1           1          12           1          12           1          12           1          12
 AtmWgt=  12.0000000   1.0078250   1.0078250  12.0000000   1.0078250  12.0000000   1.0078250  12.0000000   1.0078250  12.0000000
 NucSpn=           0           1           1           0           1           0           1           0           1           0
 AtZEff=  -0.0000000  -0.0000000  -0.0000000  -0.0000000  -0.0000000  -0.0000000  -0.0000000  -0.0000000  -0.0000000  -0.0000000
 NQMom=    0.0000000   0.0000000   0.0000000   0.0000000   0.0000000   0.0000000   0.0000000   0.0000000   0.0000000   0.0000000
 NMagM=    0.0000000   2.7928460   2.7928460   0.0000000   2.7928460   0.0000000   2.7928460   0.0000000   2.7928460   0.0000000
 AtZNuc=   6.0000000   1.0000000   1.0000000   6.0000000   1.0000000   6.0000000   1.0000000   6.0000000   1.0000000   6.0000000

  Atom        11          12          13          14          15          16          17          18          19          20
 IAtWgt=           1          12          12          12           1           1           1          12           1          12
 AtmWgt=   1.0078250  12.0000000  12.0000000  12.0000000   1.0078250   1.0078250   1.0078250  12.0000000   1.0078250  12.0000000
 NucSpn=           1           0           0           0           1           1           1           0           1           0
 AtZEff=  -0.0000000  -0.0000000  -0.0000000  -0.0000000  -0.0000000  -0.0000000  -0.0000000  -0.0000000  -0.0000000  -0.0000000
 NQMom=    0.0000000   0.0000000   0.0000000   0.0000000   0.0000000   0.0000000   0.0000000   0.0000000   0.0000000   0.0000000
 NMagM=    2.7928460   0.0000000   0.0000000   0.0000000   2.7928460   2.7928460   2.7928460   0.0000000   2.7928460   0.0000000
 AtZNuc=   1.0000000   6.0000000   6.0000000   6.0000000   1.0000000   1.0000000   1.0000000   6.0000000   1.0000000   6.0000000

  Atom        21          22
 IAtWgt=           1           1
 AtmWgt=   1.0078250   1.0078250
 NucSpn=           1           1
 AtZEff=  -0.0000000  -0.0000000
 NQMom=    0.0000000   0.0000000
 NMagM=    2.7928460   2.7928460
 AtZNuc=   1.0000000   1.0000000
 Leave Link  101 at Fri Jun 25 15:38:59 2021, MaxMem=  8053063680 cpu:               1.1 elap:               0.0
 (Enter /public/software/g16-c01AVX2/g16/l123.exe)
 IRC-IRC-IRC-IRC-IRC-IRC-IRC-IRC-IRC-IRC-IRC-IRC-IRC-IRC-IRC-IRC-IRC-IRC
 ------------------------------------------------------------------------
 INPUT DATA FOR L123
 ------------------------------------------------------------------------
 GENERAL PARAMETERS:
 Rxn path following direction = Reverse
 Maximum points per path      = 300
 Step size                    =   0.030 bohr
 Integration scheme           = LQA                                 
 Initial Hessian              = CalcFC
 Hessian evaluation           = Analytic every  30 predictor steps
                              = Update at all corrector steps
 Hessian updating method      = Bofill                              
 ------------------------------------------------------------------------
 IRC-IRC-IRC-IRC-IRC-IRC-IRC-IRC-IRC-IRC-IRC-IRC-IRC-IRC-IRC-IRC-IRC-IRC
 Leave Link  123 at Fri Jun 25 15:38:59 2021, MaxMem=  8053063680 cpu:               0.1 elap:               0.0
 (Enter /public/software/g16-c01AVX2/g16/l202.exe)
                          Input orientation:                          
 ---------------------------------------------------------------------
 Center     Atomic      Atomic             Coordinates (Angstroms)
 Number     Number       Type             X           Y           Z
 ---------------------------------------------------------------------
      1          6           0        1.858556   -0.801066    0.428853
      2          1           0        1.780893   -1.297762    1.402433
      3          1           0        2.788899   -1.148364   -0.048594
      4          6           0        0.605130    0.136268   -1.367147
      5          1           0        0.195588    0.163423   -2.368741
      6          6           0        0.652898   -1.067225   -0.492813
      7          1           0        0.660359   -2.026069   -1.018769
      8          6           0        1.304645    1.163260   -0.728054
      9          1           0        1.328918    2.195948   -1.063874
     10          6           0        1.820382    0.703667    0.473623
     11          1           0        2.368095    1.303239    1.193162
     12          6           0       -0.605066    0.136413    1.367090
     13          6           0       -0.652835   -1.067178    0.492894
     14          6           0       -1.820479    0.703576   -0.473650
     15          1           0       -0.195542    0.163656    2.368690
     16          1           0       -0.660263   -2.025962    1.018959
     17          1           0       -2.368264    1.303061   -1.193207
     18          6           0       -1.304682    1.163309    0.727934
     19          1           0       -1.328987    2.196022    1.063673
     20          6           0       -1.858540   -0.801157   -0.428759
     21          1           0       -1.780899   -1.297922   -1.402304
     22          1           0       -2.788848   -1.148466    0.048748
 ---------------------------------------------------------------------
                    Distance matrix (angstroms):
                    1          2          3          4          5
     1  C    0.000000
     2  H    1.095717   0.000000
     3  H    1.101866   1.773098   0.000000
     4  C    2.382286   3.333082   2.856170   0.000000
     5  H    3.394442   4.343962   3.718754   1.082429   0.000000
     6  C    1.540753   2.217539   2.183212   1.488334   2.289701
     7  H    2.243194   2.765546   2.498457   2.190917   2.613869
     8  C    2.346024   3.289744   2.829891   1.397309   2.218453
     9  H    3.389815   4.300344   3.787712   2.204116   2.668009
    10  C    1.505883   2.206800   2.154241   2.277545   3.318260
    11  H    2.296061   2.674660   2.780178   3.320399   4.325057
    12  C    2.797962   2.784045   3.895358   2.990088   3.820760
    13  C    2.526262   2.608345   3.485016   2.547648   3.228491
    14  C    4.075998   4.527132   4.985651   2.646461   2.819160
    15  H    2.985461   2.641153   4.058515   3.820773   4.753550
    16  H    2.862349   2.576154   3.715719   3.459763   4.123397
    17  H    4.992438   5.542304   5.823741   3.198864   3.042037
    18  C    3.735545   4.004072   4.764896   3.015221   3.583292
    19  H    4.421082   4.689631   5.420244   3.727235   4.270510
    20  C    3.814748   4.104309   4.675871   2.798036   2.985530
    21  H    4.104343   4.533532   4.768433   2.784111   2.641218
    22  H    4.675845   4.768363   5.578596   3.895432   4.058591
                    6          7          8          9         10
     6  C    0.000000
     7  H    1.093649   0.000000
     8  C    2.335632   3.266717   0.000000
     9  H    3.381037   4.274861   1.086190   0.000000
    10  C    2.330896   3.320293   1.386087   2.198258   0.000000
    11  H    3.376909   4.346642   2.200362   2.640271   1.084994
    12  C    2.547638   3.459762   3.015135   3.727139   2.646291
    13  C    1.636019   2.220152   3.208940   4.122968   3.041885
    14  C    3.041989   3.728629   3.168979   3.534719   3.762073
    15  H    3.228485   4.123389   3.583238   4.270443   2.819014
    16  H    2.220140   2.428246   4.133286   5.110730   3.728521
    17  H    3.903361   4.504008   3.704885   3.805671   4.547785
    18  C    3.208991   4.133339   2.988058   3.348547   3.168907
    19  H    4.123020   5.110784   3.348567   3.404543   3.534658
    20  C    2.526305   2.862407   3.735539   4.421074   4.075936
    21  H    2.608402   2.576245   4.004074   4.689629   4.527106
    22  H    3.485040   3.715751   4.764891   5.420243   4.985571
                   11         12         13         14         15
    11  H    0.000000
    12  C    3.198659   0.000000
    13  C    3.903238   1.488332   0.000000
    14  C    4.547748   2.277548   2.330916   0.000000
    15  H    3.041833   1.082430   2.289690   3.318257   0.000000
    16  H    4.503874   2.190915   1.093648   3.320295   2.613841
    17  H    5.303570   3.320400   3.376931   1.084994   4.325052
    18  C    3.704768   1.397318   2.335641   1.386075   2.218463
    19  H    3.805554   2.204113   3.381042   2.198254   2.668010
    20  C    4.992350   2.382291   1.540758   1.505884   3.394429
    21  H    5.542259   3.333083   2.217554   2.206798   4.343957
    22  H    5.823624   2.856194   2.183214   2.154228   3.718741
                   16         17         18         19         20
    16  H    0.000000
    17  H    4.346647   0.000000
    18  C    3.266714   2.200345   0.000000
    19  H    4.274850   2.640262   1.086189   0.000000
    20  C    2.243190   2.296069   2.346023   3.389817   0.000000
    21  H    2.765571   2.674665   3.289735   4.300339   1.095716
    22  H    2.498436   2.780167   2.829902   3.787726   1.101866
                   21         22
    21  H    0.000000
    22  H    1.773091   0.000000
 Symmetry turned off by external request.
 Stoichiometry    C10H12
 Framework group  C1[X(C10H12)]
 Deg. of freedom    60
 Full point group                 C1      NOp   1
 Rotational constants (GHZ):           2.3996600           1.4199287           1.3462109
 Leave Link  202 at Fri Jun 25 15:38:59 2021, MaxMem=  8053063680 cpu:               0.1 elap:               0.0
 (Enter /public/software/g16-c01AVX2/g16/l301.exe)
 Standard basis: 6-31G(d) (6D, 7F)
 Ernie: Thresh=  0.10000D-02 Tol=  0.10000D-05 Strict=F.
   174 basis functions,   328 primitive gaussians,   174 cartesian basis functions
    36 alpha electrons       36 beta electrons
       nuclear repulsion energy       528.7959938114 Hartrees.
 IExCor=  402 DFT=T Ex+Corr=B3LYP ExCW=0 ScaHFX=  0.200000
 ScaDFX=  0.800000  0.720000  1.000000  0.810000 ScalE2=  1.000000  1.000000
 IRadAn=      5 IRanWt=     -1 IRanGd=            0 ICorTp=0 IEmpDi=  4
 NAtoms=   22 NActive=   22 NUniq=   22 SFac= 1.00D+00 NAtFMM=   60 NAOKFM=F Big=F
 Integral buffers will be    131072 words long.
 Raffenetti 2 integral format.
 Two-electron integral symmetry is turned off.
 Leave Link  301 at Fri Jun 25 15:38:59 2021, MaxMem=  8053063680 cpu:               0.8 elap:               0.0
 (Enter /public/software/g16-c01AVX2/g16/l302.exe)
 NPDir=0 NMtPBC=     1 NCelOv=     1 NCel=       1 NClECP=     1 NCelD=      1
         NCelK=      1 NCelE2=     1 NClLst=     1 CellRange=     0.0.
 One-electron integrals computed using PRISM.
 NBasis=   174 RedAO= T EigKep=  1.10D-03  NBF=   174
 NBsUse=   174 1.00D-06 EigRej= -1.00D+00 NBFU=   174
 Precomputing XC quadrature grid using
 IXCGrd= 4 IRadAn=           5 IRanWt=          -1 IRanGd=           0 AccXCQ= 0.00D+00.
 Generated NRdTot=       0 NPtTot=           0 NUsed=           0 NTot=          32
 NSgBfM=   174   174   174   174   174 MxSgAt=    22 MxSgA2=    22.
 Leave Link  302 at Fri Jun 25 15:38:59 2021, MaxMem=  8053063680 cpu:               3.2 elap:               0.1
 (Enter /public/software/g16-c01AVX2/g16/l303.exe)
 DipDrv:  MaxL=1.
 Leave Link  303 at Fri Jun 25 15:38:59 2021, MaxMem=  8053063680 cpu:               0.4 elap:               0.0
 (Enter /public/software/g16-c01AVX2/g16/l401.exe)
 ExpMin= 1.61D-01 ExpMax= 3.05D+03 ExpMxC= 4.57D+02 IAcc=3 IRadAn=         5 AccDes= 0.00D+00
 Harris functional with IExCor=  402 and IRadAn=       5 diagonalized for initial guess.
 HarFok:  IExCor=  402 AccDes= 0.00D+00 IRadAn=         5 IDoV= 1 UseB2=F ITyADJ=14
 ICtDFT=  3500011 ScaDFX=  1.000000  1.000000  1.000000  1.000000
 FoFCou: FMM=F IPFlag=           0 FMFlag=      100000 FMFlg1=           0
         NFxFlg=           0 DoJE=T BraDBF=F KetDBF=T FulRan=T
         wScrn=  0.000000 ICntrl=       500 IOpCl=  0 I1Cent=   200000004 NGrid=           0
         NMat0=    1 NMatS0=      1 NMatT0=    0 NMatD0=    1 NMtDS0=    0 NMtDT0=    0
 Symmetry not used in FoFCou.
 Harris En= -388.209499608270    
 JPrj=0 DoOrth=F DoCkMO=F.
 Leave Link  401 at Fri Jun 25 15:39:00 2021, MaxMem=  8053063680 cpu:               7.0 elap:               0.2
 (Enter /public/software/g16-c01AVX2/g16/l502.exe)
 Two-electron integral symmetry not used.
 Closed shell SCF:
 Using DIIS extrapolation, IDIIS=  1040.
 NGot=  8053063680 LenX=  8052995336 LenY=  8052964619
 Requested convergence on RMS density matrix=1.00D-08 within 128 cycles.
 Requested convergence on MAX density matrix=1.00D-06.
 Requested convergence on             energy=1.00D-06.
 No special actions if energy rises.
 Fock matrices will be formed incrementally for  20 cycles.
 Integral accuracy reduced to 1.0D-05 until final iterations.

 Cycle   1  Pass 0  IDiag  1:
 FoFJK:  IHMeth= 1 ICntrl=       0 DoSepK=F KAlg= 0 I1Cent=           0 FoldK=F
 IRaf= 980000000 NMat=       1 IRICut=       1 DoRegI=T DoRafI=F ISym2E= 0 IDoP0=0 IntGTp=1.
 FoFCou: FMM=F IPFlag=           0 FMFlag=      100000 FMFlg1=           0
         NFxFlg=           0 DoJE=F BraDBF=F KetDBF=F FulRan=T
         wScrn=  0.000000 ICntrl=         0 IOpCl=  0 I1Cent=           0 NGrid=           0
         NMat0=    1 NMatS0=      1 NMatT0=    0 NMatD0=    1 NMtDS0=    0 NMtDT0=    0
 Symmetry not used in FoFCou.
 E= -387.900277397970    
 DIIS: error= 3.23D-02 at cycle   1 NSaved=   1.
 NSaved= 1 IEnMin= 1 EnMin= -387.900277397970     IErMin= 1 ErrMin= 3.23D-02
 ErrMax= 3.23D-02  0.00D+00 EMaxC= 1.00D-01 BMatC= 2.46D-01 BMatP= 2.46D-01
 IDIUse=3 WtCom= 6.77D-01 WtEn= 3.23D-01
 Coeff-Com:  0.100D+01
 Coeff-En:   0.100D+01
 Coeff:      0.100D+01
 Gap=     0.145 Goal=   None    Shift=    0.000
 GapD=    0.145 DampG=1.000 DampE=0.500 DampFc=0.5000 IDamp=-1.
 Damping current iteration by 5.00D-01
 RMSDP=8.18D-03 MaxDP=1.52D-01              OVMax= 1.75D-01

 Cycle   2  Pass 0  IDiag  1:
 RMSU=  4.05D-03    CP:  9.76D-01
 E= -388.013007115078     Delta-E=       -0.112729717108 Rises=F Damp=T
 DIIS: error= 8.33D-03 at cycle   2 NSaved=   2.
 NSaved= 2 IEnMin= 2 EnMin= -388.013007115078     IErMin= 2 ErrMin= 8.33D-03
 ErrMax= 8.33D-03  0.00D+00 EMaxC= 1.00D-01 BMatC= 1.83D-02 BMatP= 2.46D-01
 IDIUse=3 WtCom= 9.17D-01 WtEn= 8.33D-02
 Coeff-Com:  0.103D+00 0.897D+00
 Coeff-En:   0.173D+00 0.827D+00
 Coeff:      0.109D+00 0.891D+00
 Gap=     0.143 Goal=   None    Shift=    0.000
 RMSDP=2.35D-03 MaxDP=3.26D-02 DE=-1.13D-01 OVMax= 1.01D-01

 Cycle   3  Pass 0  IDiag  1:
 RMSU=  1.87D-03    CP:  9.70D-01  6.50D-01
 E= -388.171893693393     Delta-E=       -0.158886578315 Rises=F Damp=F
 DIIS: error= 5.15D-03 at cycle   3 NSaved=   3.
 NSaved= 3 IEnMin= 3 EnMin= -388.171893693393     IErMin= 3 ErrMin= 5.15D-03
 ErrMax= 5.15D-03  0.00D+00 EMaxC= 1.00D-01 BMatC= 4.38D-03 BMatP= 1.83D-02
 IDIUse=3 WtCom= 9.48D-01 WtEn= 5.15D-02
 Coeff-Com: -0.916D-02 0.297D+00 0.713D+00
 Coeff-En:   0.000D+00 0.000D+00 0.100D+01
 Coeff:     -0.869D-02 0.281D+00 0.727D+00
 Gap=     0.140 Goal=   None    Shift=    0.000
 RMSDP=7.41D-04 MaxDP=1.10D-02 DE=-1.59D-01 OVMax= 2.22D-02

 Cycle   4  Pass 0  IDiag  1:
 RMSU=  5.05D-04    CP:  9.70D-01  7.34D-01  7.74D-01
 E= -388.174647338740     Delta-E=       -0.002753645347 Rises=F Damp=F
 DIIS: error= 2.01D-03 at cycle   4 NSaved=   4.
 NSaved= 4 IEnMin= 4 EnMin= -388.174647338740     IErMin= 4 ErrMin= 2.01D-03
 ErrMax= 2.01D-03  0.00D+00 EMaxC= 1.00D-01 BMatC= 1.25D-03 BMatP= 4.38D-03
 IDIUse=3 WtCom= 9.80D-01 WtEn= 2.01D-02
 Coeff-Com: -0.115D-01 0.915D-01 0.384D+00 0.536D+00
 Coeff-En:   0.000D+00 0.000D+00 0.216D+00 0.784D+00
 Coeff:     -0.113D-01 0.896D-01 0.381D+00 0.541D+00
 Gap=     0.139 Goal=   None    Shift=    0.000
 RMSDP=3.00D-04 MaxDP=4.71D-03 DE=-2.75D-03 OVMax= 1.53D-02

 Cycle   5  Pass 0  IDiag  1:
 RMSU=  1.70D-04    CP:  9.70D-01  7.24D-01  8.18D-01  5.46D-01
 E= -388.175790250953     Delta-E=       -0.001142912213 Rises=F Damp=F
 DIIS: error= 7.04D-04 at cycle   5 NSaved=   5.
 NSaved= 5 IEnMin= 5 EnMin= -388.175790250953     IErMin= 5 ErrMin= 7.04D-04
 ErrMax= 7.04D-04  0.00D+00 EMaxC= 1.00D-01 BMatC= 1.40D-04 BMatP= 1.25D-03
 IDIUse=3 WtCom= 9.93D-01 WtEn= 7.04D-03
 Coeff-Com: -0.493D-02 0.122D-01 0.106D+00 0.296D+00 0.590D+00
 Coeff-En:   0.000D+00 0.000D+00 0.000D+00 0.859D-01 0.914D+00
 Coeff:     -0.490D-02 0.121D-01 0.106D+00 0.294D+00 0.593D+00
 Gap=     0.139 Goal=   None    Shift=    0.000
 RMSDP=9.16D-05 MaxDP=1.58D-03 DE=-1.14D-03 OVMax= 4.59D-03

 Cycle   6  Pass 0  IDiag  1:
 RMSU=  3.40D-05    CP:  9.70D-01  7.24D-01  8.23D-01  6.37D-01  5.86D-01
 E= -388.175939069161     Delta-E=       -0.000148818207 Rises=F Damp=F
 DIIS: error= 1.11D-04 at cycle   6 NSaved=   6.
 NSaved= 6 IEnMin= 6 EnMin= -388.175939069161     IErMin= 6 ErrMin= 1.11D-04
 ErrMax= 1.11D-04  0.00D+00 EMaxC= 1.00D-01 BMatC= 4.02D-06 BMatP= 1.40D-04
 IDIUse=3 WtCom= 9.99D-01 WtEn= 1.11D-03
 Coeff-Com: -0.204D-02 0.322D-02 0.403D-01 0.129D+00 0.294D+00 0.536D+00
 Coeff-En:   0.000D+00 0.000D+00 0.000D+00 0.000D+00 0.000D+00 0.100D+01
 Coeff:     -0.204D-02 0.322D-02 0.402D-01 0.129D+00 0.293D+00 0.536D+00
 Gap=     0.139 Goal=   None    Shift=    0.000
 RMSDP=1.49D-05 MaxDP=2.76D-04 DE=-1.49D-04 OVMax= 4.83D-04

 Cycle   7  Pass 0  IDiag  1:
 RMSU=  6.30D-06    CP:  9.70D-01  7.24D-01  8.24D-01  6.36D-01  6.20D-01
                    CP:  6.46D-01
 E= -388.175943085879     Delta-E=       -0.000004016718 Rises=F Damp=F
 DIIS: error= 2.05D-05 at cycle   7 NSaved=   7.
 NSaved= 7 IEnMin= 7 EnMin= -388.175943085879     IErMin= 7 ErrMin= 2.05D-05
 ErrMax= 2.05D-05  0.00D+00 EMaxC= 1.00D-01 BMatC= 1.19D-07 BMatP= 4.02D-06
 IDIUse=1 WtCom= 1.00D+00 WtEn= 0.00D+00
 Coeff-Com: -0.412D-03 0.329D-03 0.776D-02 0.288D-01 0.709D-01 0.202D+00
 Coeff-Com:  0.690D+00
 Coeff:     -0.412D-03 0.329D-03 0.776D-02 0.288D-01 0.709D-01 0.202D+00
 Coeff:      0.690D+00
 Gap=     0.139 Goal=   None    Shift=    0.000
 RMSDP=2.55D-06 MaxDP=4.95D-05 DE=-4.02D-06 OVMax= 7.11D-05

 Initial convergence to 1.0D-05 achieved.  Increase integral accuracy.
 Cycle   8  Pass 1  IDiag  1:
 E= -388.175902850820     Delta-E=        0.000040235059 Rises=F Damp=F
 DIIS: error= 9.67D-06 at cycle   1 NSaved=   1.
 NSaved= 1 IEnMin= 1 EnMin= -388.175902850820     IErMin= 1 ErrMin= 9.67D-06
 ErrMax= 9.67D-06  0.00D+00 EMaxC= 1.00D-01 BMatC= 3.47D-08 BMatP= 3.47D-08
 IDIUse=1 WtCom= 1.00D+00 WtEn= 0.00D+00
 Coeff-Com:  0.100D+01
 Coeff:      0.100D+01
 Gap=     0.139 Goal=   None    Shift=    0.000
 RMSDP=2.55D-06 MaxDP=4.95D-05 DE= 4.02D-05 OVMax= 6.47D-05

 Cycle   9  Pass 1  IDiag  1:
 RMSU=  5.04D-06    CP:  1.00D+00
 E= -388.175902873526     Delta-E=       -0.000000022706 Rises=F Damp=F
 DIIS: error= 4.48D-06 at cycle   2 NSaved=   2.
 NSaved= 2 IEnMin= 2 EnMin= -388.175902873526     IErMin= 2 ErrMin= 4.48D-06
 ErrMax= 4.48D-06  0.00D+00 EMaxC= 1.00D-01 BMatC= 9.99D-09 BMatP= 3.47D-08
 IDIUse=1 WtCom= 1.00D+00 WtEn= 0.00D+00
 Coeff-Com:  0.296D+00 0.704D+00
 Coeff:      0.296D+00 0.704D+00
 Gap=     0.139 Goal=   None    Shift=    0.000
 RMSDP=1.02D-06 MaxDP=2.24D-05 DE=-2.27D-08 OVMax= 5.07D-05

 Cycle  10  Pass 1  IDiag  1:
 RMSU=  9.59D-07    CP:  1.00D+00  9.32D-01
 E= -388.175902879071     Delta-E=       -0.000000005545 Rises=F Damp=F
 DIIS: error= 3.20D-06 at cycle   3 NSaved=   3.
 NSaved= 3 IEnMin= 3 EnMin= -388.175902879071     IErMin= 3 ErrMin= 3.20D-06
 ErrMax= 3.20D-06  0.00D+00 EMaxC= 1.00D-01 BMatC= 4.09D-09 BMatP= 9.99D-09
 IDIUse=1 WtCom= 1.00D+00 WtEn= 0.00D+00
 Coeff-Com:  0.240D-01 0.386D+00 0.590D+00
 Coeff:      0.240D-01 0.386D+00 0.590D+00
 Gap=     0.139 Goal=   None    Shift=    0.000
 RMSDP=5.55D-07 MaxDP=1.53D-05 DE=-5.54D-09 OVMax= 5.48D-05

 Cycle  11  Pass 1  IDiag  1:
 RMSU=  3.60D-07    CP:  1.00D+00  9.69D-01  6.07D-01
 E= -388.175902882006     Delta-E=       -0.000000002935 Rises=F Damp=F
 DIIS: error= 3.24D-06 at cycle   4 NSaved=   4.
 NSaved= 4 IEnMin= 4 EnMin= -388.175902882006     IErMin= 3 ErrMin= 3.20D-06
 ErrMax= 3.24D-06  0.00D+00 EMaxC= 1.00D-01 BMatC= 1.06D-09 BMatP= 4.09D-09
 IDIUse=1 WtCom= 1.00D+00 WtEn= 0.00D+00
 Coeff-Com: -0.321D-02 0.222D+00 0.413D+00 0.368D+00
 Coeff:     -0.321D-02 0.222D+00 0.413D+00 0.368D+00
 Gap=     0.139 Goal=   None    Shift=    0.000
 RMSDP=2.69D-07 MaxDP=6.14D-06 DE=-2.94D-09 OVMax= 3.29D-05

 Cycle  12  Pass 1  IDiag  1:
 RMSU=  1.03D-07    CP:  1.00D+00  9.74D-01  6.79D-01  3.41D-01
 E= -388.175902883248     Delta-E=       -0.000000001242 Rises=F Damp=F
 DIIS: error= 8.25D-07 at cycle   5 NSaved=   5.
 NSaved= 5 IEnMin= 5 EnMin= -388.175902883248     IErMin= 5 ErrMin= 8.25D-07
 ErrMax= 8.25D-07  0.00D+00 EMaxC= 1.00D-01 BMatC= 7.78D-11 BMatP= 1.06D-09
 IDIUse=1 WtCom= 1.00D+00 WtEn= 0.00D+00
 Coeff-Com: -0.519D-02 0.102D+00 0.205D+00 0.247D+00 0.451D+00
 Coeff:     -0.519D-02 0.102D+00 0.205D+00 0.247D+00 0.451D+00
 Gap=     0.139 Goal=   None    Shift=    0.000
 RMSDP=6.41D-08 MaxDP=1.44D-06 DE=-1.24D-09 OVMax= 6.72D-06

 Cycle  13  Pass 1  IDiag  1:
 RMSU=  2.80D-08    CP:  1.00D+00  9.76D-01  6.66D-01  4.14D-01  5.26D-01
 E= -388.175902883334     Delta-E=       -0.000000000086 Rises=F Damp=F
 DIIS: error= 7.37D-08 at cycle   6 NSaved=   6.
 NSaved= 6 IEnMin= 6 EnMin= -388.175902883334     IErMin= 6 ErrMin= 7.37D-08
 ErrMax= 7.37D-08  0.00D+00 EMaxC= 1.00D-01 BMatC= 1.39D-12 BMatP= 7.78D-11
 IDIUse=1 WtCom= 1.00D+00 WtEn= 0.00D+00
 Coeff-Com: -0.219D-02 0.363D-01 0.750D-01 0.963D-01 0.206D+00 0.589D+00
 Coeff:     -0.219D-02 0.363D-01 0.750D-01 0.963D-01 0.206D+00 0.589D+00
 Gap=     0.139 Goal=   None    Shift=    0.000
 RMSDP=1.25D-08 MaxDP=3.06D-07 DE=-8.56D-11 OVMax= 7.69D-07

 Cycle  14  Pass 1  IDiag  1:
 RMSU=  1.01D-08    CP:  1.00D+00  9.77D-01  6.66D-01  4.12D-01  5.54D-01
                    CP:  7.80D-01
 E= -388.175902883335     Delta-E=       -0.000000000001 Rises=F Damp=F
 DIIS: error= 4.62D-08 at cycle   7 NSaved=   7.
 NSaved= 7 IEnMin= 7 EnMin= -388.175902883335     IErMin= 7 ErrMin= 4.62D-08
 ErrMax= 4.62D-08  0.00D+00 EMaxC= 1.00D-01 BMatC= 5.87D-13 BMatP= 1.39D-12
 IDIUse=1 WtCom= 1.00D+00 WtEn= 0.00D+00
 Coeff-Com: -0.549D-03 0.630D-02 0.139D-01 0.207D-01 0.586D-01 0.404D+00
 Coeff-Com:  0.497D+00
 Coeff:     -0.549D-03 0.630D-02 0.139D-01 0.207D-01 0.586D-01 0.404D+00
 Coeff:      0.497D+00
 Gap=     0.139 Goal=   None    Shift=    0.000
 RMSDP=6.11D-09 MaxDP=1.45D-07 DE=-7.96D-13 OVMax= 4.19D-07

 SCF Done:  E(RB3LYP) =  -388.175902883     A.U. after   14 cycles
            NFock= 14  Conv=0.61D-08     -V/T= 2.0099
 KE= 3.843804616097D+02 PE=-1.955970605341D+03 EE= 6.546182470362D+02
 Leave Link  502 at Fri Jun 25 15:39:03 2021, MaxMem=  8053063680 cpu:              91.9 elap:               2.9
 (Enter /public/software/g16-c01AVX2/g16/l801.exe)
 DoSCS=F DFT=T ScalE2(SS,OS)=  1.000000  1.000000
 Range of M.O.s used for correlation:     1   174
 NBasis=   174 NAE=    36 NBE=    36 NFC=     0 NFV=     0
 NROrb=    174 NOA=    36 NOB=    36 NVA=   138 NVB=   138
 Leave Link  801 at Fri Jun 25 15:39:03 2021, MaxMem=  8053063680 cpu:               0.3 elap:               0.0
 (Enter /public/software/g16-c01AVX2/g16/l1101.exe)
 Using compressed storage, NAtomX=    22.
 Will process     23 centers per pass.
 Leave Link 1101 at Fri Jun 25 15:39:03 2021, MaxMem=  8053063680 cpu:               3.6 elap:               0.1
 (Enter /public/software/g16-c01AVX2/g16/l1102.exe)
 Symmetrizing basis deriv contribution to polar:
 IMax=3 JMax=2 DiffMx= 0.00D+00
 Leave Link 1102 at Fri Jun 25 15:39:03 2021, MaxMem=  8053063680 cpu:               0.4 elap:               0.0
 (Enter /public/software/g16-c01AVX2/g16/l1110.exe)
 Forming Gx(P) for the SCF density, NAtomX=    22.
 Integral derivatives from FoFJK, PRISM(SPDF).
 Do as many integral derivatives as possible in FoFJK.
 G2DrvN: MDV=    8053061278.
 G2DrvN: will do    23 centers at a time, making    1 passes.
 Calling FoFCou, ICntrl=  3107 FMM=F I1Cent=   0 AccDes= 0.00D+00.
 FoFJK:  IHMeth= 1 ICntrl=    3107 DoSepK=F KAlg= 0 I1Cent=           0 FoldK=F
 IRaf=         0 NMat=       1 IRICut=       1 DoRegI=T DoRafI=F ISym2E= 0 IDoP0=0 IntGTp=1.
 FoFCou: FMM=F IPFlag=           0 FMFlag=      100000 FMFlg1=           0
         NFxFlg=           0 DoJE=F BraDBF=F KetDBF=F FulRan=T
         wScrn=  0.000000 ICntrl=      3107 IOpCl=  0 I1Cent=           0 NGrid=           0
         NMat0=    1 NMatS0=      1 NMatT0=    0 NMatD0=    1 NMtDS0=    0 NMtDT0=    0
 Symmetry not used in FoFCou.
 End of G2Drv F.D. properties file   721 does not exist.
 End of G2Drv F.D. properties file   722 does not exist.
 End of G2Drv F.D. properties file   788 does not exist.
 Leave Link 1110 at Fri Jun 25 15:39:08 2021, MaxMem=  8053063680 cpu:             173.8 elap:               5.5
 (Enter /public/software/g16-c01AVX2/g16/l1002.exe)
 Minotr:  Closed shell wavefunction.
          IDoAtm=1111111111111111111111
          Direct CPHF calculation.
          Differentiating once with respect to nuclear coordinates.
          Requested convergence is 1.0D-08 RMS, and 1.0D-07 maximum.
          Secondary convergence is 1.0D-12 RMS, and 1.0D-12 maximum.
          NewPWx=T KeepS1=F KeepF1=F KeepIn=T MapXYZ=F SortEE=F KeepMc=T.
         6487 words used for storage of precomputed grid.
 Keep R1 ints in memory in canonical form, NReq=147869182.
 FoFCou: FMM=F IPFlag=           0 FMFlag=           0 FMFlg1=           0
         NFxFlg=           0 DoJE=F BraDBF=F KetDBF=F FulRan=T
         wScrn=  0.000000 ICntrl=       600 IOpCl=  0 I1Cent=           0 NGrid=           0
         NMat0=    1 NMatS0=  15225 NMatT0=    0 NMatD0=    1 NMtDS0=    0 NMtDT0=    0
 Symmetry not used in FoFCou.
 Two-electron integral symmetry not used.
          MDV=    8053063680 using IRadAn=       1.
          Solving linear equations simultaneously, MaxMat=       0.
          There are    69 degrees of freedom in the 1st order CPHF.  IDoFFX=6 NUNeed=     0.
     63 vectors produced by pass  0 Test12= 7.20D-15 1.45D-09 XBig12= 8.76D-02 9.33D-02.
 AX will form    63 AO Fock derivatives at one time.
     63 vectors produced by pass  1 Test12= 7.20D-15 1.45D-09 XBig12= 9.34D-03 2.42D-02.
     63 vectors produced by pass  2 Test12= 7.20D-15 1.45D-09 XBig12= 7.04D-05 9.94D-04.
     63 vectors produced by pass  3 Test12= 7.20D-15 1.45D-09 XBig12= 1.52D-07 4.24D-05.
     63 vectors produced by pass  4 Test12= 7.20D-15 1.45D-09 XBig12= 1.65D-10 1.30D-06.
     51 vectors produced by pass  5 Test12= 7.20D-15 1.45D-09 XBig12= 1.27D-13 3.44D-08.
 InvSVY:  IOpt=1 It=  1 EMax= 3.05D-16
 Solved reduced A of dimension   366 with    69 vectors.
 End of Minotr F.D. properties file   721 does not exist.
 End of Minotr F.D. properties file   722 does not exist.
 End of Minotr F.D. properties file   788 does not exist.
 Leave Link 1002 at Fri Jun 25 15:39:15 2021, MaxMem=  8053063680 cpu:             209.3 elap:               6.6
 (Enter /public/software/g16-c01AVX2/g16/l601.exe)
 Copying SCF densities to generalized density rwf, IOpCl= 0 IROHF=0.

 **********************************************************************

            Population analysis using the SCF Density.

 **********************************************************************

 Alpha  occ. eigenvalues --  -10.18918 -10.18907 -10.17947 -10.17947 -10.17885
 Alpha  occ. eigenvalues --  -10.17884 -10.17705 -10.17704 -10.17212 -10.17210
 Alpha  occ. eigenvalues --   -0.86642  -0.82185  -0.72377  -0.70104  -0.67933
 Alpha  occ. eigenvalues --   -0.66326  -0.56382  -0.54253  -0.52554  -0.50732
 Alpha  occ. eigenvalues --   -0.50509  -0.48599  -0.45253  -0.41623  -0.38016
 Alpha  occ. eigenvalues --   -0.37342  -0.36728  -0.36087  -0.35716  -0.34737
 Alpha  occ. eigenvalues --   -0.33526  -0.32233  -0.31265  -0.28907  -0.23745
 Alpha  occ. eigenvalues --   -0.16890
 Alpha virt. eigenvalues --   -0.02955   0.03315   0.07594   0.09940   0.13125
 Alpha virt. eigenvalues --    0.14006   0.14651   0.15418   0.16078   0.16964
 Alpha virt. eigenvalues --    0.18005   0.18466   0.19416   0.19585   0.20609
 Alpha virt. eigenvalues --    0.22491   0.22863   0.23284   0.23575   0.26755
 Alpha virt. eigenvalues --    0.28813   0.32674   0.36811   0.37777   0.39146
 Alpha virt. eigenvalues --    0.41214   0.50498   0.51451   0.54277   0.55723
 Alpha virt. eigenvalues --    0.56781   0.57699   0.59361   0.59526   0.60508
 Alpha virt. eigenvalues --    0.61829   0.62453   0.63386   0.64537   0.67301
 Alpha virt. eigenvalues --    0.68039   0.70189   0.71032   0.73210   0.76044
 Alpha virt. eigenvalues --    0.76819   0.78977   0.80850   0.83520   0.84094
 Alpha virt. eigenvalues --    0.84251   0.84910   0.85354   0.85546   0.86851
 Alpha virt. eigenvalues --    0.87448   0.89255   0.90590   0.92718   0.93514
 Alpha virt. eigenvalues --    0.94010   0.95784   0.97961   0.98866   1.03226
 Alpha virt. eigenvalues --    1.08011   1.13362   1.18647   1.19304   1.24213
 Alpha virt. eigenvalues --    1.25308   1.29407   1.31935   1.38907   1.41603
 Alpha virt. eigenvalues --    1.44634   1.47031   1.50545   1.52682   1.53402
 Alpha virt. eigenvalues --    1.61003   1.65150   1.65820   1.70563   1.70632
 Alpha virt. eigenvalues --    1.74507   1.77328   1.83344   1.84200   1.86731
 Alpha virt. eigenvalues --    1.91741   1.94367   1.94549   2.00109   2.05003
 Alpha virt. eigenvalues --    2.05018   2.06897   2.08099   2.09624   2.13974
 Alpha virt. eigenvalues --    2.14201   2.17818   2.18303   2.23319   2.25362
 Alpha virt. eigenvalues --    2.28686   2.32184   2.32850   2.38263   2.41101
 Alpha virt. eigenvalues --    2.41790   2.47269   2.48142   2.49616   2.54967
 Alpha virt. eigenvalues --    2.61470   2.63729   2.64126   2.64900   2.66906
 Alpha virt. eigenvalues --    2.67160   2.68755   2.72475   2.77648   2.92754
 Alpha virt. eigenvalues --    2.93805   2.95668   2.97426   4.12316   4.21107
 Alpha virt. eigenvalues --    4.22548   4.38359   4.39377   4.47117   4.50939
 Alpha virt. eigenvalues --    4.65064   4.65282   4.78345
          Condensed to atoms (all electrons):
               1          2          3          4          5          6
     1  C    5.078384   0.360801   0.353643  -0.076374   0.005524   0.368974
     2  H    0.360801   0.608448  -0.039154   0.006577  -0.000133  -0.038544
     3  H    0.353643  -0.039154   0.607853   0.002026  -0.000033  -0.030569
     4  C   -0.076374   0.006577   0.002026   5.062658   0.362604   0.422716
     5  H    0.005524  -0.000133  -0.000033   0.362604   0.586297  -0.045422
     6  C    0.368974  -0.038544  -0.030569   0.422716  -0.045422   5.066400
     7  H   -0.037945   0.000136  -0.002103  -0.042957  -0.002757   0.362433
     8  C   -0.049476   0.004411  -0.004191   0.529976  -0.040295  -0.041709
     9  H    0.006909  -0.000141  -0.000106  -0.052922  -0.003190   0.006641
    10  C    0.374000  -0.032905  -0.040356  -0.057620   0.005851  -0.055806
    11  H   -0.047347  -0.000960   0.000589   0.007368  -0.000164   0.004654
    12  C   -0.012395  -0.002146   0.002409  -0.056934   0.000384  -0.046530
    13  C   -0.041880  -0.003063   0.005126  -0.046528   0.000429   0.271575
    14  C    0.000281   0.000028  -0.000100   0.080409  -0.001753  -0.018551
    15  H    0.000555   0.001022  -0.000008   0.000384  -0.000003   0.000430
    16  H   -0.004049   0.003182  -0.000131   0.005073  -0.000129  -0.034664
    17  H   -0.000006  -0.000000   0.000000  -0.004015   0.000081   0.000692
    18  C   -0.000696   0.000556  -0.000056   0.009514  -0.000431  -0.015433
    19  H   -0.000017   0.000004  -0.000001   0.000533  -0.000030  -0.000150
    20  C    0.005777   0.000327  -0.000153  -0.012392   0.000556  -0.041877
    21  H    0.000327  -0.000014  -0.000002  -0.002145   0.001022  -0.003064
    22  H   -0.000153  -0.000002  -0.000001   0.002409  -0.000008   0.005126
               7          8          9         10         11         12
     1  C   -0.037945  -0.049476   0.006909   0.374000  -0.047347  -0.012395
     2  H    0.000136   0.004411  -0.000141  -0.032905  -0.000960  -0.002146
     3  H   -0.002103  -0.004191  -0.000106  -0.040356   0.000589   0.002409
     4  C   -0.042957   0.529976  -0.052922  -0.057620   0.007368  -0.056934
     5  H   -0.002757  -0.040295  -0.003190   0.005851  -0.000164   0.000384
     6  C    0.362433  -0.041709   0.006641  -0.055806   0.004654  -0.046530
     7  H    0.621364   0.006936  -0.000114   0.004902  -0.000180   0.005073
     8  C    0.006936   4.800306   0.366399   0.561250  -0.041845   0.009514
     9  H   -0.000114   0.366399   0.613725  -0.054006  -0.003772   0.000533
    10  C    0.004902   0.561250  -0.054006   5.042073   0.362406   0.080439
    11  H   -0.000180  -0.041845  -0.003772   0.362406   0.601533  -0.004017
    12  C    0.005073   0.009514   0.000533   0.080439  -0.004017   5.062672
    13  C   -0.034664  -0.015436  -0.000150  -0.018557   0.000692   0.422715
    14  C   -0.000121  -0.010455  -0.000565  -0.005227   0.000045  -0.057618
    15  H   -0.000129  -0.000432  -0.000030  -0.001756   0.000081   0.362602
    16  H   -0.004808   0.000023   0.000009  -0.000121   0.000007  -0.042956
    17  H    0.000007   0.000247   0.000052   0.000045  -0.000000   0.007367
    18  C    0.000023  -0.016282   0.000326  -0.010459   0.000247   0.529949
    19  H    0.000009   0.000326   0.000035  -0.000565   0.000052  -0.052923
    20  C   -0.004048  -0.000696  -0.000017   0.000281  -0.000006  -0.076377
    21  H    0.003182   0.000556   0.000004   0.000028  -0.000000   0.006577
    22  H   -0.000131  -0.000056  -0.000001  -0.000100   0.000000   0.002026
              13         14         15         16         17         18
     1  C   -0.041880   0.000281   0.000555  -0.004049  -0.000006  -0.000696
     2  H   -0.003063   0.000028   0.001022   0.003182  -0.000000   0.000556
     3  H    0.005126  -0.000100  -0.000008  -0.000131   0.000000  -0.000056
     4  C   -0.046528   0.080409   0.000384   0.005073  -0.004015   0.009514
     5  H    0.000429  -0.001753  -0.000003  -0.000129   0.000081  -0.000431
     6  C    0.271575  -0.018551   0.000430  -0.034664   0.000692  -0.015433
     7  H   -0.034664  -0.000121  -0.000129  -0.004808   0.000007   0.000023
     8  C   -0.015436  -0.010455  -0.000432   0.000023   0.000247  -0.016282
     9  H   -0.000150  -0.000565  -0.000030   0.000009   0.000052   0.000326
    10  C   -0.018557  -0.005227  -0.001756  -0.000121   0.000045  -0.010459
    11  H    0.000692   0.000045   0.000081   0.000007  -0.000000   0.000247
    12  C    0.422715  -0.057618   0.362602  -0.042956   0.007367   0.529949
    13  C    5.066399  -0.055807  -0.045422   0.362435   0.004654  -0.041708
    14  C   -0.055807   5.042055   0.005851   0.004901   0.362405   0.561281
    15  H   -0.045422   0.005851   0.586297  -0.002757  -0.000164  -0.040293
    16  H    0.362435   0.004901  -0.002757   0.621361  -0.000180   0.006936
    17  H    0.004654   0.362405  -0.000164  -0.000180   0.601532  -0.041844
    18  C   -0.041708   0.561281  -0.040293   0.006936  -0.041844   4.800300
    19  H    0.006641  -0.054006  -0.003189  -0.000114  -0.003772   0.366399
    20  C    0.368976   0.373999   0.005524  -0.037944  -0.047348  -0.049474
    21  H   -0.038543  -0.032904  -0.000133   0.000136  -0.000959   0.004410
    22  H   -0.030569  -0.040357  -0.000032  -0.002103   0.000589  -0.004192
              19         20         21         22
     1  C   -0.000017   0.005777   0.000327  -0.000153
     2  H    0.000004   0.000327  -0.000014  -0.000002
     3  H   -0.000001  -0.000153  -0.000002  -0.000001
     4  C    0.000533  -0.012392  -0.002145   0.002409
     5  H   -0.000030   0.000556   0.001022  -0.000008
     6  C   -0.000150  -0.041877  -0.003064   0.005126
     7  H    0.000009  -0.004048   0.003182  -0.000131
     8  C    0.000326  -0.000696   0.000556  -0.000056
     9  H    0.000035  -0.000017   0.000004  -0.000001
    10  C   -0.000565   0.000281   0.000028  -0.000100
    11  H    0.000052  -0.000006  -0.000000   0.000000
    12  C   -0.052923  -0.076377   0.006577   0.002026
    13  C    0.006641   0.368976  -0.038543  -0.030569
    14  C   -0.054006   0.373999  -0.032904  -0.040357
    15  H   -0.003189   0.005524  -0.000133  -0.000032
    16  H   -0.000114  -0.037944   0.000136  -0.002103
    17  H   -0.003772  -0.047348  -0.000959   0.000589
    18  C    0.366399  -0.049474   0.004410  -0.004192
    19  H    0.613726   0.006910  -0.000141  -0.000106
    20  C    0.006910   5.078382   0.360799   0.353644
    21  H   -0.000141   0.360799   0.608446  -0.039155
    22  H   -0.000106   0.353644  -0.039155   0.607854
 Mulliken charges:
               1
     1  C   -0.284837
     2  H    0.131572
     3  H    0.145318
     4  C   -0.140359
     5  H    0.131600
     6  C   -0.137318
     7  H    0.125890
     8  C   -0.059071
     9  H    0.120380
    10  C   -0.153795
    11  H    0.120618
    12  C   -0.140365
    13  C   -0.137314
    14  C   -0.153792
    15  H    0.131603
    16  H    0.125893
    17  H    0.120619
    18  C   -0.059071
    19  H    0.120380
    20  C   -0.284843
    21  H    0.131574
    22  H    0.145319
 Sum of Mulliken charges =  -0.00000
 Mulliken charges with hydrogens summed into heavy atoms:
               1
     1  C   -0.007947
     4  C   -0.008758
     6  C   -0.011428
     8  C    0.061309
    10  C   -0.033177
    12  C   -0.008763
    13  C   -0.011421
    14  C   -0.033173
    18  C    0.061309
    20  C   -0.007951
 APT charges:
               1
     1  C   -0.898965
     2  H    0.392098
     3  H    0.523161
     4  C   -0.601092
     5  H    0.480768
     6  C   -0.501825
     7  H    0.467703
     8  C   -0.372750
     9  H    0.510800
    10  C   -0.548034
    11  H    0.548138
    12  C   -0.601104
    13  C   -0.501819
    14  C   -0.548034
    15  H    0.480765
    16  H    0.467703
    17  H    0.548153
    18  C   -0.372759
    19  H    0.510802
    20  C   -0.898977
    21  H    0.392109
    22  H    0.523159
 Sum of APT charges =  -0.00000
 APT charges with hydrogens summed into heavy atoms:
               1
     1  C    0.016294
     4  C   -0.120324
     6  C   -0.034121
     8  C    0.138050
    10  C    0.000104
    12  C   -0.120339
    13  C   -0.034116
    14  C    0.000119
    18  C    0.138043
    20  C    0.016292
 Electronic spatial extent (au):  <R**2>=           1126.9296
 Charge=             -0.0000 electrons
 Dipole moment (field-independent basis, Debye):
    X=             -0.0000    Y=             -0.2487    Z=              0.0001  Tot=              0.2487
 Quadrupole moment (field-independent basis, Debye-Ang):
   XX=            -61.1566   YY=            -57.0876   ZZ=            -58.4879
   XY=              0.0001   XZ=              2.4087   YZ=             -0.0000
 Traceless Quadrupole moment (field-independent basis, Debye-Ang):
   XX=             -2.2459   YY=              1.8231   ZZ=              0.4228
   XY=              0.0001   XZ=              2.4087   YZ=             -0.0000
 Octapole moment (field-independent basis, Debye-Ang**2):
  XXX=             -0.0007  YYY=              4.0671  ZZZ=             -0.0000  XYY=              0.0000
  XXY=             -0.0636  XXZ=             -0.0001  XZZ=             -0.0003  YZZ=              0.7632
  YYZ=              0.0001  XYZ=              1.0123
 Hexadecapole moment (field-independent basis, Debye-Ang**3):
 XXXX=           -811.7812 YYYY=           -388.1215 ZZZZ=           -334.5797 XXXY=             -0.0003
 XXXZ=             15.9900 YYYX=             -0.0002 YYYZ=             -0.0001 ZZZX=             10.7947
 ZZZY=              0.0002 XXYY=           -194.8031 XXZZ=           -195.1788 YYZZ=           -120.4346
 XXYZ=             -0.0006 YYXZ=             -0.6871 ZZXY=              0.0007
 N-N= 5.287959938114D+02 E-N=-1.955970606922D+03  KE= 3.843804616097D+02
  Exact polarizability:       0.000       0.000       0.000       0.000       0.000       0.000
 Approx polarizability:     260.077       0.003     148.702      -3.035       0.004     185.550
 No NMR shielding tensors so no spin-rotation constants.
 Leave Link  601 at Fri Jun 25 15:39:15 2021, MaxMem=  8053063680 cpu:               2.1 elap:               0.1
 (Enter /public/software/g16-c01AVX2/g16/l701.exe)
 ... and contract with generalized density number  0.
 Compute integral second derivatives.
 Leave Link  701 at Fri Jun 25 15:39:15 2021, MaxMem=  8053063680 cpu:               3.2 elap:               0.1
 (Enter /public/software/g16-c01AVX2/g16/l702.exe)
 L702 exits ... SP integral derivatives will be done elsewhere.
 Leave Link  702 at Fri Jun 25 15:39:15 2021, MaxMem=  8053063680 cpu:               0.2 elap:               0.0
 (Enter /public/software/g16-c01AVX2/g16/l703.exe)
 Integral derivatives from FoFJK, PRISM(SPDF).
 Compute integral second derivatives, UseDBF=F ICtDFT=           0.
 Calling FoFJK, ICntrl=    100127 FMM=F ISym2X=0 I1Cent= 0 IOpClX= 0 NMat=1 NMatS=1 NMatT=0.
 FoFJK:  IHMeth= 1 ICntrl=  100127 DoSepK=F KAlg= 0 I1Cent=           0 FoldK=F
 IRaf=         0 NMat=       1 IRICut=       1 DoRegI=T DoRafI=F ISym2E= 0 IDoP0=0 IntGTp=1.
 FoFCou: FMM=F IPFlag=           0 FMFlag=      100000 FMFlg1=         800
         NFxFlg=           0 DoJE=F BraDBF=F KetDBF=F FulRan=T
         wScrn=  0.000000 ICntrl=    100127 IOpCl=  0 I1Cent=           0 NGrid=           0
         NMat0=    1 NMatS0=      1 NMatT0=    0 NMatD0=    1 NMtDS0=    0 NMtDT0=    0
 Symmetry not used in FoFCou.
 Leave Link  703 at Fri Jun 25 15:39:25 2021, MaxMem=  8053063680 cpu:             314.3 elap:               9.8
 (Enter /public/software/g16-c01AVX2/g16/l716.exe)
 Dipole        =-1.07369520D-05-9.78566663D-02 3.24562743D-05
 Polarizability= 0.00000000D+00 0.00000000D+00 0.00000000D+00
                 0.00000000D+00 0.00000000D+00 0.00000000D+00
 -------------------------------------------------------------------
 Center     Atomic                   Forces (Hartrees/Bohr)
 Number     Number              X              Y              Z
 -------------------------------------------------------------------
      1        6           0.000066877   -0.000036118    0.000013656
      2        1          -0.000023767    0.000034258   -0.000018422
      3        1           0.000010474   -0.000011716    0.000010414
      4        6           0.000067942    0.000099140   -0.000061844
      5        1           0.000017419   -0.000003051   -0.000003568
      6        6          -0.000123793    0.000029899    0.000111281
      7        1          -0.000011435   -0.000006751   -0.000006152
      8        6          -0.000041218   -0.000065049   -0.000013631
      9        1           0.000015382    0.000001672   -0.000006806
     10        6           0.000017791   -0.000048999   -0.000040951
     11        1          -0.000011911    0.000005243   -0.000003328
     12        6          -0.000060594    0.000096705    0.000065914
     13        6           0.000121021    0.000030309   -0.000115898
     14        6          -0.000020746   -0.000046056    0.000046164
     15        1          -0.000018689   -0.000002145    0.000003307
     16        1           0.000011197   -0.000006616    0.000006479
     17        1           0.000012186    0.000004192    0.000002223
     18        6           0.000039070   -0.000063632    0.000011271
     19        1          -0.000015840    0.000002590    0.000005523
     20        6          -0.000066617   -0.000034607   -0.000013106
     21        1           0.000025605    0.000033378    0.000017814
     22        1          -0.000010355   -0.000012645   -0.000010338
 -------------------------------------------------------------------
 Cartesian Forces:  Max     0.000123793 RMS     0.000044863
 Z-matrix is all fixed cartesians, so copy forces.
 Leave Link  716 at Fri Jun 25 15:39:25 2021, MaxMem=  8053063680 cpu:               0.3 elap:               0.0
 (Enter /public/software/g16-c01AVX2/g16/l123.exe)
 IRC-IRC-IRC-IRC-IRC-IRC-IRC-IRC-IRC-IRC-IRC-IRC-IRC-IRC-IRC-IRC-IRC-IRC
          ******** Start new reaction path calculation ********
 Current Structure is TS -> form Hessian eigenvectors.
                            Diagonalizing Hessian.
 Supplied step size of   0.0300 bohr.
    Integration on MW PES will use step size of   0.0732 sqrt(amu)*bohr.
 Point Number:   0          Path Number:   1
 Calculating another point on the path.
 Point Number  1 in REVERSE path direction.
 Using LQA Reaction Path Following.
 IRC-IRC-IRC-IRC-IRC-IRC-IRC-IRC-IRC-IRC-IRC-IRC-IRC-IRC-IRC-IRC-IRC-IRC
 Leave Link  123 at Fri Jun 25 15:39:25 2021, MaxMem=  8053063680 cpu:               0.2 elap:               0.0
 (Enter /public/software/g16-c01AVX2/g16/l202.exe)
                          Input orientation:                          
 ---------------------------------------------------------------------
 Center     Atomic      Atomic             Coordinates (Angstroms)
 Number     Number       Type             X           Y           Z
 ---------------------------------------------------------------------
      1          6           0        1.858587   -0.812700    0.428550
      2          1           0        1.780573   -1.307553    1.403062
      3          1           0        2.787916   -1.163129   -0.048615
      4          6           0        0.601199    0.125703   -1.365287
      5          1           0        0.194795    0.151522   -2.368184
      6          6           0        0.651616   -1.078287   -0.491659
      7          1           0        0.659252   -2.036673   -1.018438
      8          6           0        1.305001    1.152171   -0.727788
      9          1           0        1.329252    2.184845   -1.063693
     10          6           0        1.824942    0.692254    0.470815
     11          1           0        2.374123    1.291445    1.189550
     12          6           0       -0.608998    0.122653    1.368951
     13          6           0       -0.654118   -1.080440    0.494048
     14          6           0       -1.815921    0.690665   -0.476458
     15          1           0       -0.196334    0.151234    2.369246
     16          1           0       -0.661369   -2.039682    1.019290
     17          1           0       -2.362238    1.290531   -1.196819
     18          6           0       -1.304327    1.150073    0.728200
     19          1           0       -1.328654    2.182801    1.063854
     20          6           0       -1.858509   -0.813847   -0.429061
     21          1           0       -1.781219   -1.312455   -1.401675
     22          1           0       -2.789832   -1.158026    0.048727
 ---------------------------------------------------------------------
                    Distance matrix (angstroms):
                    1          2          3          4          5
     1  C    0.000000
     2  H    1.095737   0.000000
     3  H    1.101879   1.772841   0.000000
     4  C    2.383165   3.333001   2.859448   0.000000
     5  H    3.394061   4.343488   3.719272   1.082421   0.000000
     6  C    1.540813   2.217448   2.183407   1.488408   2.289642
     7  H    2.242831   2.766340   2.496967   2.190787   2.612610
     8  C    2.346124   3.288911   2.832125   1.398348   2.219179
     9  H    3.390024   4.299467   3.790385   2.204787   2.668912
    10  C    1.505923   2.206872   2.153966   2.278112   3.318085
    11  H    2.296154   2.674449   2.780145   3.321054   4.325086
    12  C    2.801467   2.785086   3.898942   2.990091   3.822708
    13  C    2.527778   2.608755   3.485529   2.547102   3.229668
    14  C    4.071997   4.523299   4.981457   2.636602   2.812878
    15  H    2.986330   2.640024   4.059476   3.818828   4.753549
    16  H    2.864374   2.578056   3.715687   3.459650   4.124242
    17  H    4.988063   5.538258   5.819184   3.188599   3.034445
    18  C    3.734474   4.001496   4.764535   3.010490   3.582187
    19  H    4.419858   4.686675   5.420238   3.722460   4.269177
    20  C    3.814748   4.104063   4.675040   2.794537   2.984659
    21  H    4.104592   4.533534   4.767606   2.783081   2.642347
    22  H    4.676678   4.769190   5.578599   3.891849   4.057631
                    6          7          8          9         10
     6  C    0.000000
     7  H    1.093645   0.000000
     8  C    2.336153   3.266527   0.000000
     9  H    3.381485   4.274595   1.086202   0.000000
    10  C    2.331923   3.320203   1.385104   2.197328   0.000000
    11  H    3.377739   4.346534   2.199683   2.639512   1.084993
    12  C    2.548191   3.459881   3.019870   3.731917   2.656155
    13  C    1.636021   2.219670   3.211788   4.125821   3.047741
    14  C    3.036142   3.722714   3.164855   3.531222   3.762075
    15  H    3.227309   4.122544   3.584342   4.271775   2.825297
    16  H    2.220626   2.428247   4.136039   5.113513   3.734440
    17  H    3.897674   4.497945   3.699699   3.800607   4.546583
    18  C    3.206143   4.130586   2.988059   3.349234   3.173038
    19  H    4.120168   5.108001   3.347882   3.404544   3.538162
    20  C    2.524792   2.860383   3.736611   4.422299   4.079942
    21  H    2.607997   2.574347   4.006652   4.692586   4.530946
    22  H    3.484528   3.715783   4.765254   5.420250   4.989773
                   11         12         13         14         15
    11  H    0.000000
    12  C    3.208935   0.000000
    13  C    3.908939   1.488262   0.000000
    14  C    4.548954   2.277023   2.329910   0.000000
    15  H    3.049428   1.082451   2.289750   3.318446   0.000000
    16  H    4.509945   2.191050   1.093653   3.320398   2.615101
    17  H    5.303571   3.319784   3.376123   1.084999   4.325039
    18  C    3.709962   1.396294   2.335121   1.387078   2.217738
    19  H    3.810626   2.203451   3.380594   2.199195   2.667108
    20  C    4.996732   2.381420   1.540701   1.505861   3.394810
    21  H    5.546315   3.333167   2.217646   2.206744   4.344432
    22  H    5.828191   2.852922   2.183026   2.154525   3.718226
                   16         17         18         19         20
    16  H    0.000000
    17  H    4.346770   0.000000
    18  C    3.266905   2.201045   0.000000
    19  H    4.275116   2.641038   1.086177   0.000000
    20  C    2.243554   2.295997   2.345923   3.389608   0.000000
    21  H    2.764777   2.674899   3.290568   4.301216   1.095701
    22  H    2.499932   2.780226   2.827672   3.785056   1.101864
                   21         22
    21  H    0.000000
    22  H    1.773362   0.000000
 Symmetry turned off by external request.
 Stoichiometry    C10H12
 Framework group  C1[X(C10H12)]
 Deg. of freedom    60
 Full point group                 C1      NOp   1
 Rotational constants (GHZ):           2.3996601           1.4199243           1.3462031
 Leave Link  202 at Fri Jun 25 15:39:25 2021, MaxMem=  8053063680 cpu:               0.1 elap:               0.0
 (Enter /public/software/g16-c01AVX2/g16/l301.exe)
 Standard basis: 6-31G(d) (6D, 7F)
 Ernie: Thresh=  0.10000D-02 Tol=  0.10000D-05 Strict=F.
   174 basis functions,   328 primitive gaussians,   174 cartesian basis functions
    36 alpha electrons       36 beta electrons
       nuclear repulsion energy       528.7952872712 Hartrees.
 IExCor=  402 DFT=T Ex+Corr=B3LYP ExCW=0 ScaHFX=  0.200000
 ScaDFX=  0.800000  0.720000  1.000000  0.810000 ScalE2=  1.000000  1.000000
 IRadAn=      5 IRanWt=     -1 IRanGd=            0 ICorTp=0 IEmpDi=  4
 NAtoms=   22 NActive=   22 NUniq=   22 SFac= 1.00D+00 NAtFMM=   60 NAOKFM=F Big=F
 Integral buffers will be    131072 words long.
 Raffenetti 2 integral format.
 Two-electron integral symmetry is turned off.
 Leave Link  301 at Fri Jun 25 15:39:25 2021, MaxMem=  8053063680 cpu:               0.7 elap:               0.0
 (Enter /public/software/g16-c01AVX2/g16/l302.exe)
 NPDir=0 NMtPBC=     1 NCelOv=     1 NCel=       1 NClECP=     1 NCelD=      1
         NCelK=      1 NCelE2=     1 NClLst=     1 CellRange=     0.0.
 One-electron integrals computed using PRISM.
 NBasis=   174 RedAO= T EigKep=  1.10D-03  NBF=   174
 NBsUse=   174 1.00D-06 EigRej= -1.00D+00 NBFU=   174
 Precomputing XC quadrature grid using
 IXCGrd= 4 IRadAn=           5 IRanWt=          -1 IRanGd=           0 AccXCQ= 0.00D+00.
 Generated NRdTot=       0 NPtTot=           0 NUsed=           0 NTot=          32
 NSgBfM=   174   174   174   174   174 MxSgAt=    22 MxSgA2=    22.
 Leave Link  302 at Fri Jun 25 15:39:26 2021, MaxMem=  8053063680 cpu:               3.1 elap:               0.1
 (Enter /public/software/g16-c01AVX2/g16/l303.exe)
 DipDrv:  MaxL=1.
 Leave Link  303 at Fri Jun 25 15:39:26 2021, MaxMem=  8053063680 cpu:               0.4 elap:               0.0
 (Enter /public/software/g16-c01AVX2/g16/l401.exe)
 Initial guess from the checkpoint file:  "/public/home/QZX_HG/tmp/Gau-110248.chk"
 B after Tr=     0.000081   -0.022983   -0.000048
         Rot=    1.000000    0.000024   -0.000000    0.000027 Ang=   0.00 deg.
 Guess basis will be translated and rotated to current coordinates.
 JPrj=2 DoOrth=T DoCkMO=T.
 Generating alternative initial guess.
 ExpMin= 1.61D-01 ExpMax= 3.05D+03 ExpMxC= 4.57D+02 IAcc=3 IRadAn=         5 AccDes= 0.00D+00
 Harris functional with IExCor=  402 and IRadAn=       5 diagonalized for initial guess.
 HarFok:  IExCor=  402 AccDes= 0.00D+00 IRadAn=         5 IDoV= 1 UseB2=F ITyADJ=14
 ICtDFT=  3500011 ScaDFX=  1.000000  1.000000  1.000000  1.000000
 FoFCou: FMM=F IPFlag=           0 FMFlag=      100000 FMFlg1=           0
         NFxFlg=           0 DoJE=T BraDBF=F KetDBF=T FulRan=T
         wScrn=  0.000000 ICntrl=       500 IOpCl=  0 I1Cent=   200000004 NGrid=           0
         NMat0=    1 NMatS0=      1 NMatT0=    0 NMatD0=    1 NMtDS0=    0 NMtDT0=    0
 Symmetry not used in FoFCou.
 Harris En= -388.209499639636    
 Leave Link  401 at Fri Jun 25 15:39:26 2021, MaxMem=  8053063680 cpu:               8.4 elap:               0.3
 (Enter /public/software/g16-c01AVX2/g16/l502.exe)
 Two-electron integral symmetry not used.
 Closed shell SCF:
 Using DIIS extrapolation, IDIIS=  1040.
 NGot=  8053063680 LenX=  8052995336 LenY=  8052964619
 Requested convergence on RMS density matrix=1.00D-08 within 128 cycles.
 Requested convergence on MAX density matrix=1.00D-06.
 Requested convergence on             energy=1.00D-06.
 No special actions if energy rises.
 Fock matrices will be formed incrementally for  20 cycles.
 Integral accuracy reduced to 1.0D-05 until final iterations.

 Cycle   1  Pass 0  IDiag  1:
 FoFJK:  IHMeth= 1 ICntrl=       0 DoSepK=F KAlg= 0 I1Cent=           0 FoldK=F
 IRaf= 980000000 NMat=       1 IRICut=       1 DoRegI=T DoRafI=F ISym2E= 0 IDoP0=0 IntGTp=1.
 FoFCou: FMM=F IPFlag=           0 FMFlag=      100000 FMFlg1=           0
         NFxFlg=           0 DoJE=F BraDBF=F KetDBF=F FulRan=T
         wScrn=  0.000000 ICntrl=         0 IOpCl=  0 I1Cent=           0 NGrid=           0
         NMat0=    1 NMatS0=      1 NMatT0=    0 NMatD0=    1 NMtDS0=    0 NMtDT0=    0
 Symmetry not used in FoFCou.
 E= -388.175903904270    
 DIIS: error= 2.65D-04 at cycle   1 NSaved=   1.
 NSaved= 1 IEnMin= 1 EnMin= -388.175903904270     IErMin= 1 ErrMin= 2.65D-04
 ErrMax= 2.65D-04  0.00D+00 EMaxC= 1.00D-01 BMatC= 1.70D-05 BMatP= 1.70D-05
 IDIUse=3 WtCom= 9.97D-01 WtEn= 2.65D-03
 Coeff-Com:  0.100D+01
 Coeff-En:   0.100D+01
 Coeff:      0.100D+01
 Gap=     1.621 Goal=   None    Shift=    0.000
 RMSDP=5.63D-05 MaxDP=1.07D-03              OVMax= 3.46D-03

 Cycle   2  Pass 0  IDiag  1:
 RMSU=  5.63D-05    CP:  1.00D+00
 E= -388.175947622624     Delta-E=       -0.000043718354 Rises=F Damp=F
 DIIS: error= 5.71D-05 at cycle   2 NSaved=   2.
 NSaved= 2 IEnMin= 2 EnMin= -388.175947622624     IErMin= 2 ErrMin= 5.71D-05
 ErrMax= 5.71D-05  0.00D+00 EMaxC= 1.00D-01 BMatC= 6.40D-07 BMatP= 1.70D-05
 IDIUse=1 WtCom= 1.00D+00 WtEn= 0.00D+00
 Coeff-Com: -0.445D-01 0.104D+01
 Coeff:     -0.445D-01 0.104D+01
 Gap=     0.139 Goal=   None    Shift=    0.000
 RMSDP=1.63D-05 MaxDP=3.81D-04 DE=-4.37D-05 OVMax= 1.75D-03

 Cycle   3  Pass 0  IDiag  1:
 RMSU=  1.53D-05    CP:  1.00D+00  1.10D+00
 E= -388.175946622866     Delta-E=        0.000000999758 Rises=F Damp=F
 DIIS: error= 1.03D-04 at cycle   3 NSaved=   3.
 NSaved= 3 IEnMin= 2 EnMin= -388.175947622624     IErMin= 2 ErrMin= 5.71D-05
 ErrMax= 1.03D-04  0.00D+00 EMaxC= 1.00D-01 BMatC= 1.97D-06 BMatP= 6.40D-07
 IDIUse=3 WtCom= 4.97D-01 WtEn= 5.03D-01
 Coeff-Com: -0.568D-01 0.708D+00 0.348D+00
 Coeff-En:   0.000D+00 0.661D+00 0.339D+00
 Coeff:     -0.282D-01 0.685D+00 0.344D+00
 Gap=     0.139 Goal=   None    Shift=    0.000
 RMSDP=1.13D-05 MaxDP=3.27D-04 DE= 1.00D-06 OVMax= 1.25D-03

 Cycle   4  Pass 0  IDiag  1:
 RMSU=  5.69D-06    CP:  1.00D+00  1.12D+00  3.67D-01
 E= -388.175948896959     Delta-E=       -0.000002274093 Rises=F Damp=F
 DIIS: error= 3.26D-05 at cycle   4 NSaved=   4.
 NSaved= 4 IEnMin= 4 EnMin= -388.175948896959     IErMin= 4 ErrMin= 3.26D-05
 ErrMax= 3.26D-05  0.00D+00 EMaxC= 1.00D-01 BMatC= 1.15D-07 BMatP= 6.40D-07
 IDIUse=1 WtCom= 1.00D+00 WtEn= 0.00D+00
 Coeff-Com: -0.215D-01 0.193D+00 0.213D+00 0.616D+00
 Coeff:     -0.215D-01 0.193D+00 0.213D+00 0.616D+00
 Gap=     0.139 Goal=   None    Shift=    0.000
 RMSDP=3.12D-06 MaxDP=7.46D-05 DE=-2.27D-06 OVMax= 3.64D-04

 Initial convergence to 1.0D-05 achieved.  Increase integral accuracy.
 Cycle   5  Pass 1  IDiag  1:
 E= -388.175908068046     Delta-E=        0.000040828913 Rises=F Damp=F
 DIIS: error= 1.35D-05 at cycle   1 NSaved=   1.
 NSaved= 1 IEnMin= 1 EnMin= -388.175908068046     IErMin= 1 ErrMin= 1.35D-05
 ErrMax= 1.35D-05  0.00D+00 EMaxC= 1.00D-01 BMatC= 4.75D-08 BMatP= 4.75D-08
 IDIUse=1 WtCom= 1.00D+00 WtEn= 0.00D+00
 Coeff-Com:  0.100D+01
 Coeff:      0.100D+01
 Gap=     0.139 Goal=   None    Shift=    0.000
 RMSDP=3.12D-06 MaxDP=7.46D-05 DE= 4.08D-05 OVMax= 3.38D-04

 Cycle   6  Pass 1  IDiag  1:
 RMSU=  5.52D-06    CP:  1.00D+00
 E= -388.175907989318     Delta-E=        0.000000078728 Rises=F Damp=F
 DIIS: error= 3.43D-05 at cycle   2 NSaved=   2.
 NSaved= 2 IEnMin= 1 EnMin= -388.175908068046     IErMin= 1 ErrMin= 1.35D-05
 ErrMax= 3.43D-05  0.00D+00 EMaxC= 1.00D-01 BMatC= 1.07D-07 BMatP= 4.75D-08
 IDIUse=1 WtCom= 1.00D+00 WtEn= 0.00D+00
 Coeff-Com:  0.624D+00 0.376D+00
 Coeff:      0.624D+00 0.376D+00
 Gap=     0.139 Goal=   None    Shift=    0.000
 RMSDP=2.86D-06 MaxDP=9.39D-05 DE= 7.87D-08 OVMax= 3.18D-04

 Cycle   7  Pass 1  IDiag  1:
 RMSU=  2.48D-06    CP:  1.00D+00  7.41D-01
 E= -388.175908099750     Delta-E=       -0.000000110431 Rises=F Damp=F
 DIIS: error= 1.41D-05 at cycle   3 NSaved=   3.
 NSaved= 3 IEnMin= 3 EnMin= -388.175908099750     IErMin= 1 ErrMin= 1.35D-05
 ErrMax= 1.41D-05  0.00D+00 EMaxC= 1.00D-01 BMatC= 1.34D-08 BMatP= 4.75D-08
 IDIUse=1 WtCom= 1.00D+00 WtEn= 0.00D+00
 Coeff-Com:  0.553D-01 0.257D+00 0.688D+00
 Coeff:      0.553D-01 0.257D+00 0.688D+00
 Gap=     0.139 Goal=   None    Shift=    0.000
 RMSDP=1.02D-06 MaxDP=2.47D-05 DE=-1.10D-07 OVMax= 1.17D-04

 Cycle   8  Pass 1  IDiag  1:
 RMSU=  4.65D-07    CP:  1.00D+00  8.39D-01  7.04D-01
 E= -388.175908113866     Delta-E=       -0.000000014116 Rises=F Damp=F
 DIIS: error= 3.32D-06 at cycle   4 NSaved=   4.
 NSaved= 4 IEnMin= 4 EnMin= -388.175908113866     IErMin= 4 ErrMin= 3.32D-06
 ErrMax= 3.32D-06  0.00D+00 EMaxC= 1.00D-01 BMatC= 2.26D-09 BMatP= 1.34D-08
 IDIUse=1 WtCom= 1.00D+00 WtEn= 0.00D+00
 Coeff-Com: -0.758D-02 0.143D+00 0.457D+00 0.407D+00
 Coeff:     -0.758D-02 0.143D+00 0.457D+00 0.407D+00
 Gap=     0.139 Goal=   None    Shift=    0.000
 RMSDP=3.62D-07 MaxDP=9.40D-06 DE=-1.41D-08 OVMax= 3.66D-05

 Cycle   9  Pass 1  IDiag  1:
 RMSU=  1.67D-07    CP:  1.00D+00  8.37D-01  7.56D-01  3.68D-01
 E= -388.175908116313     Delta-E=       -0.000000002447 Rises=F Damp=F
 DIIS: error= 8.78D-07 at cycle   5 NSaved=   5.
 NSaved= 5 IEnMin= 5 EnMin= -388.175908116313     IErMin= 5 ErrMin= 8.78D-07
 ErrMax= 8.78D-07  0.00D+00 EMaxC= 1.00D-01 BMatC= 1.63D-10 BMatP= 2.26D-09
 IDIUse=1 WtCom= 1.00D+00 WtEn= 0.00D+00
 Coeff-Com: -0.816D-02 0.833D-01 0.273D+00 0.278D+00 0.374D+00
 Coeff:     -0.816D-02 0.833D-01 0.273D+00 0.278D+00 0.374D+00
 Gap=     0.139 Goal=   None    Shift=    0.000
 RMSDP=9.46D-08 MaxDP=2.45D-06 DE=-2.45D-09 OVMax= 7.50D-06

 Cycle  10  Pass 1  IDiag  1:
 RMSU=  4.60D-08    CP:  1.00D+00  8.37D-01  7.59D-01  4.42D-01  5.52D-01
 E= -388.175908116500     Delta-E=       -0.000000000187 Rises=F Damp=F
 DIIS: error= 1.00D-07 at cycle   6 NSaved=   6.
 NSaved= 6 IEnMin= 6 EnMin= -388.175908116500     IErMin= 6 ErrMin= 1.00D-07
 ErrMax= 1.00D-07  0.00D+00 EMaxC= 1.00D-01 BMatC= 2.58D-12 BMatP= 1.63D-10
 IDIUse=1 WtCom= 1.00D+00 WtEn= 0.00D+00
 Coeff-Com: -0.222D-02 0.147D-01 0.485D-01 0.553D-01 0.134D+00 0.750D+00
 Coeff:     -0.222D-02 0.147D-01 0.485D-01 0.553D-01 0.134D+00 0.750D+00
 Gap=     0.139 Goal=   None    Shift=    0.000
 RMSDP=1.54D-08 MaxDP=3.31D-07 DE=-1.87D-10 OVMax= 1.15D-06

 Cycle  11  Pass 1  IDiag  1:
 RMSU=  1.42D-08    CP:  1.00D+00  8.38D-01  7.59D-01  4.45D-01  5.78D-01
                    CP:  1.03D+00
 E= -388.175908116503     Delta-E=       -0.000000000003 Rises=F Damp=F
 DIIS: error= 3.55D-08 at cycle   7 NSaved=   7.
 NSaved= 7 IEnMin= 7 EnMin= -388.175908116503     IErMin= 7 ErrMin= 3.55D-08
 ErrMax= 3.55D-08  0.00D+00 EMaxC= 1.00D-01 BMatC= 4.45D-13 BMatP= 2.58D-12
 IDIUse=1 WtCom= 1.00D+00 WtEn= 0.00D+00
 Coeff-Com: -0.151D-04-0.305D-02-0.100D-01-0.929D-02 0.182D-01 0.323D+00
 Coeff-Com:  0.681D+00
 Coeff:     -0.151D-04-0.305D-02-0.100D-01-0.929D-02 0.182D-01 0.323D+00
 Coeff:      0.681D+00
 Gap=     0.139 Goal=   None    Shift=    0.000
 RMSDP=6.75D-09 MaxDP=1.55D-07 DE=-3.07D-12 OVMax= 5.00D-07

 SCF Done:  E(RB3LYP) =  -388.175908117     A.U. after   11 cycles
            NFock= 11  Conv=0.68D-08     -V/T= 2.0099
 KE= 3.843803435837D+02 PE=-1.955969096248D+03 EE= 6.546175572769D+02
 Leave Link  502 at Fri Jun 25 15:39:29 2021, MaxMem=  8053063680 cpu:              81.2 elap:               2.6
 (Enter /public/software/g16-c01AVX2/g16/l801.exe)
 DoSCS=F DFT=T ScalE2(SS,OS)=  1.000000  1.000000
 Range of M.O.s used for correlation:     1   174
 NBasis=   174 NAE=    36 NBE=    36 NFC=     0 NFV=     0
 NROrb=    174 NOA=    36 NOB=    36 NVA=   138 NVB=   138
 Leave Link  801 at Fri Jun 25 15:39:29 2021, MaxMem=  8053063680 cpu:               0.3 elap:               0.0
 (Enter /public/software/g16-c01AVX2/g16/l1101.exe)
 Leave Link 1101 at Fri Jun 25 15:39:29 2021, MaxMem=  8053063680 cpu:               0.3 elap:               0.0
 (Enter /public/software/g16-c01AVX2/g16/l1102.exe)
 Symmetrizing basis deriv contribution to polar:
 IMax=3 JMax=2 DiffMx= 0.00D+00
 Leave Link 1102 at Fri Jun 25 15:39:29 2021, MaxMem=  8053063680 cpu:               0.5 elap:               0.0
 (Enter /public/software/g16-c01AVX2/g16/l1110.exe)
 Leave Link 1110 at Fri Jun 25 15:39:29 2021, MaxMem=  8053063680 cpu:               0.8 elap:               0.0
 (Enter /public/software/g16-c01AVX2/g16/l1002.exe)
 Minotr:  Closed shell wavefunction.
 Leave Link 1002 at Fri Jun 25 15:39:29 2021, MaxMem=  8053063680 cpu:               0.7 elap:               0.0
 (Enter /public/software/g16-c01AVX2/g16/l701.exe)
 ... and contract with generalized density number  0.
 Compute integral first derivatives.
 Leave Link  701 at Fri Jun 25 15:39:29 2021, MaxMem=  8053063680 cpu:               3.1 elap:               0.1
 (Enter /public/software/g16-c01AVX2/g16/l702.exe)
 L702 exits ... SP integral derivatives will be done elsewhere.
 Leave Link  702 at Fri Jun 25 15:39:29 2021, MaxMem=  8053063680 cpu:               0.7 elap:               0.0
 (Enter /public/software/g16-c01AVX2/g16/l703.exe)
 Integral derivatives from FoFJK, PRISM(SPDF).
 Compute integral first derivatives, UseDBF=F ICtDFT=           0.
 Calling FoFJK, ICntrl=      2127 FMM=F ISym2X=0 I1Cent= 0 IOpClX= 0 NMat=1 NMatS=1 NMatT=0.
 FoFJK:  IHMeth= 1 ICntrl=    2127 DoSepK=F KAlg= 0 I1Cent=           0 FoldK=F
 IRaf=         0 NMat=       1 IRICut=       1 DoRegI=T DoRafI=F ISym2E= 0 IDoP0=0 IntGTp=1.
 FoFCou: FMM=F IPFlag=           0 FMFlag=      100000 FMFlg1=         800
         NFxFlg=           0 DoJE=F BraDBF=F KetDBF=F FulRan=T
         wScrn=  0.000000 ICntrl=      2127 IOpCl=  0 I1Cent=           0 NGrid=           0
         NMat0=    1 NMatS0=      1 NMatT0=    0 NMatD0=    1 NMtDS0=    0 NMtDT0=    0
 Symmetry not used in FoFCou.
 Leave Link  703 at Fri Jun 25 15:39:30 2021, MaxMem=  8053063680 cpu:              23.1 elap:               0.7
 (Enter /public/software/g16-c01AVX2/g16/l716.exe)
 Dipole        = 1.62906509D-03-9.78339691D-02-1.82034450D-03
 Polarizability= 0.00000000D+00 0.00000000D+00 0.00000000D+00
                 0.00000000D+00 0.00000000D+00 0.00000000D+00
 -------------------------------------------------------------------
 Center     Atomic                   Forces (Hartrees/Bohr)
 Number     Number              X              Y              Z
 -------------------------------------------------------------------
      1        6           0.000072447   -0.000012499   -0.000000848
      2        1          -0.000024666    0.000044076   -0.000016993
      3        1           0.000004141   -0.000020452    0.000012544
      4        6          -0.000118080    0.000177415    0.000024029
      5        1           0.000018252   -0.000002907    0.000000541
      6        6          -0.000183710    0.000077063    0.000168264
      7        1          -0.000015023   -0.000000658   -0.000004751
      8        6          -0.000022668   -0.000016827   -0.000000516
      9        1           0.000016285    0.000005848   -0.000006071
     10        6           0.000214341   -0.000020662   -0.000171051
     11        1           0.000011530    0.000005998   -0.000018455
     12        6          -0.000229397    0.000030828    0.000148011
     13        6           0.000064707   -0.000021591   -0.000068993
     14        6           0.000194726   -0.000084430   -0.000077129
     15        1          -0.000025554   -0.000004012    0.000003477
     16        1           0.000006318   -0.000012344    0.000007563
     17        1           0.000034506    0.000002235   -0.000010015
     18        6           0.000053086   -0.000111832    0.000021911
     19        1          -0.000014113   -0.000001243    0.000006174
     20        6          -0.000069635   -0.000057743   -0.000026167
     21        1           0.000024028    0.000025287    0.000021139
     22        1          -0.000011519   -0.000001550   -0.000012665
 -------------------------------------------------------------------
 Cartesian Forces:  Max     0.000229397 RMS     0.000074436
 Z-matrix is all fixed cartesians, so copy forces.
 Leave Link  716 at Fri Jun 25 15:39:30 2021, MaxMem=  8053063680 cpu:               0.4 elap:               0.0
 (Enter /public/software/g16-c01AVX2/g16/l123.exe)
 IRC-IRC-IRC-IRC-IRC-IRC-IRC-IRC-IRC-IRC-IRC-IRC-IRC-IRC-IRC-IRC-IRC-IRC
 Pt  1 Step number   1 out of a maximum of  20
 Point Number:   1          Path Number:   1
                    CURRENT STRUCTURE
                Cartesian Coordinates (Ang):                
 ---------------------------------------------------------------------
 Center     Atomic                     Coordinates (Angstroms)
 Number     Number                        X           Y           Z
 ---------------------------------------------------------------------
      1          6                    1.858587   -0.812700    0.428550
      2          1                    1.780573   -1.307553    1.403062
      3          1                    2.787916   -1.163129   -0.048615
      4          6                    0.601199    0.125703   -1.365287
      5          1                    0.194795    0.151522   -2.368184
      6          6                    0.651616   -1.078287   -0.491659
      7          1                    0.659252   -2.036673   -1.018438
      8          6                    1.305001    1.152171   -0.727788
      9          1                    1.329252    2.184845   -1.063693
     10          6                    1.824942    0.692254    0.470815
     11          1                    2.374123    1.291445    1.189550
     12          6                   -0.608998    0.122653    1.368951
     13          6                   -0.654118   -1.080440    0.494048
     14          6                   -1.815921    0.690665   -0.476458
     15          1                   -0.196334    0.151234    2.369246
     16          1                   -0.661369   -2.039682    1.019290
     17          1                   -2.362238    1.290531   -1.196819
     18          6                   -1.304327    1.150073    0.728200
     19          1                   -1.328654    2.182801    1.063854
     20          6                   -1.858509   -0.813847   -0.429061
     21          1                   -1.781219   -1.312455   -1.401675
     22          1                   -2.789832   -1.158026    0.048727
 ---------------------------------------------------------------------
   CHANGE IN THE REACTION COORDINATE =    0.07315
   NET REACTION COORDINATE UP TO THIS POINT =    0.07315
  # OF POINTS ALONG THE PATH =   1
  # OF STEPS =   1

 Calculating another point on the path.
 Point Number  2 in REVERSE path direction.
 Using LQA Reaction Path Following.
   LQA: T_Est iteration completed in    3 iterations.
 IRC-IRC-IRC-IRC-IRC-IRC-IRC-IRC-IRC-IRC-IRC-IRC-IRC-IRC-IRC-IRC-IRC-IRC
 Leave Link  123 at Fri Jun 25 15:39:30 2021, MaxMem=  8053063680 cpu:               1.1 elap:               0.0
 (Enter /public/software/g16-c01AVX2/g16/l202.exe)
                          Input orientation:                          
 ---------------------------------------------------------------------
 Center     Atomic      Atomic             Coordinates (Angstroms)
 Number     Number       Type             X           Y           Z
 ---------------------------------------------------------------------
      1          6           0        1.858569   -0.812326    0.428329
      2          1           0        1.779627   -1.304838    1.403924
      3          1           0        2.786870   -1.166391   -0.048180
      4          6           0        0.597430    0.127493   -1.363631
      5          1           0        0.194719    0.151766   -2.368051
      6          6           0        0.650022   -1.077033   -0.490330
      7          1           0        0.657783   -2.034914   -1.018086
      8          6           0        1.305616    1.153160   -0.727723
      9          1           0        1.330485    2.185774   -1.063840
     10          6           0        1.829603    0.692811    0.467860
     11          1           0        2.380116    1.291722    1.185801
     12          6           0       -0.612955    0.121304    1.370961
     13          6           0       -0.655061   -1.081345    0.494986
     14          6           0       -1.811612    0.689763   -0.479022
     15          1           0       -0.197851    0.150963    2.370230
     16          1           0       -0.662104   -2.040982    1.019587
     17          1           0       -2.356336    1.290097   -1.200201
     18          6           0       -1.304235    1.148962    0.728652
     19          1           0       -1.329212    2.181665    1.064332
     20          6           0       -1.858427   -0.814497   -0.429446
     21          1           0       -1.780867   -1.314384   -1.401311
     22          1           0       -2.790727   -1.156170    0.048214
 ---------------------------------------------------------------------
                    Distance matrix (angstroms):
                    1          2          3          4          5
     1  C    0.000000
     2  H    1.095712   0.000000
     3  H    1.101891   1.772656   0.000000
     4  C    2.384292   3.332944   2.863249   0.000000
     5  H    3.393760   4.342974   3.720025   1.082417   0.000000
     6  C    1.540969   2.217227   2.183941   1.488725   2.289779
     7  H    2.242481   2.767250   2.495607   2.190672   2.611207
     8  C    2.346348   3.287911   2.834821   1.399250   2.219811
     9  H    3.390286   4.298367   3.793366   2.205395   2.669854
    10  C    1.505934   2.206652   2.153901   2.278638   3.317825
    11  H    2.296257   2.674002   2.780374   3.321596   4.324966
    12  C    2.805111   2.785572   3.902682   2.990495   3.825373
    13  C    2.528863   2.608414   3.485563   2.546464   3.231048
    14  C    4.068143   4.518951   4.977647   2.627197   2.807710
    15  H    2.987938   2.638849   4.061119   3.817688   4.754516
    16  H    2.865828   2.579084   3.714896   3.459542   4.125334
    17  H    4.983745   5.533656   5.814985   3.178536   3.027797
    18  C    3.733654   3.998416   4.764605   3.006223   3.582016
    19  H    4.419324   4.683578   5.421189   3.718410   4.268971
    20  C    3.814687   4.103305   4.674182   2.791286   2.984504
    21  H    4.104283   4.532831   4.766245   2.781497   2.643316
    22  H    4.677463   4.769505   5.578438   3.888534   4.057329
                    6          7          8          9         10
     6  C    0.000000
     7  H    1.093673   0.000000
     8  C    2.336648   3.266162   0.000000
     9  H    3.381989   4.274204   1.086224   0.000000
    10  C    2.332784   3.319891   1.384161   2.196397   0.000000
    11  H    3.378408   4.346268   2.198937   2.638548   1.084988
[...]
                          Input orientation:                          
 ---------------------------------------------------------------------
 Center     Atomic      Atomic             Coordinates (Angstroms)
 Number     Number       Type             X           Y           Z
 ---------------------------------------------------------------------
      1          6           0        1.838134   -0.692785    0.481778
      2          1           0        1.712780   -0.799814    1.568792
      3          1           0        2.652590   -1.375823    0.201683
      4          6           0        0.194258    0.284299   -1.134532
      5          1           0        0.172585    0.085317   -2.215098
      6          6           0        0.532099   -1.005374   -0.297771
      7          1           0        0.673074   -1.870234   -0.954434
      8          6           0        1.290182    1.250180   -0.771658
      9          1           0        1.343870    2.257194   -1.179065
     10          6           0        2.162102    0.733325    0.098486
     11          1           0        3.022781    1.261152    0.503264
     12          6           0       -0.923053   -0.059411    1.509570
     13          6           0       -0.782951   -1.222070    0.535892
     14          6           0       -1.278225    0.625958   -0.668442
     15          1           0       -0.716269   -0.109450    2.573924
     16          1           0       -0.874620   -2.222670    0.967481
     17          1           0       -1.811455    1.304932   -1.338963
     18          6           0       -1.215351    1.035447    0.794195
     19          1           0       -1.284856    2.055857    1.157325
     20          6           0       -1.837999   -0.811383   -0.522433
     21          1           0       -1.780850   -1.398642   -1.447769
     22          1           0       -2.861936   -0.833183   -0.135821
 ---------------------------------------------------------------------
                    Distance matrix (angstroms):
                    1          2          3          4          5
     1  C    0.000000
     2  H    1.099440   0.000000
     3  H    1.099241   1.756136   0.000000
     4  C    2.503893   3.284687   3.253439   0.000000
     5  H    3.263838   4.180129   3.758482   1.098949   0.000000
     6  C    1.552783   2.218179   2.209789   1.574027   2.234950
     7  H    2.192363   2.931460   2.345108   2.214432   2.379904
     8  C    2.376230   3.139868   3.114392   1.505209   2.165514
     9  H    3.421268   4.126998   4.100979   2.283837   2.676252
    10  C    1.511840   2.171222   2.167887   2.365242   3.119418
    11  H    2.285108   2.664401   2.679856   3.411328   4.110438
    12  C    3.013581   2.738488   4.028489   2.890984   3.885167
    13  C    2.674539   2.733834   3.455180   2.452427   3.192218
    14  C    3.574043   3.998018   4.496170   1.581827   2.188444
    15  H    3.352959   2.717936   4.310503   3.838846   4.874703
    16  H    3.152061   3.013425   3.707398   3.441780   4.068446
    17  H    4.541528   5.030430   5.430261   2.259728   2.488270
    18  C    3.522522   3.541487   4.596331   2.504238   3.447457
    19  H    4.214791   4.160526   5.309723   3.252507   4.168981
    20  C    3.812671   4.120847   4.583483   2.388567   2.776983
    21  H    4.161542   4.654426   4.730391   2.613705   2.570377
    22  H    4.742552   4.882094   5.551428   3.403896   3.791484
                    6          7          8          9         10
     6  C    0.000000
     7  H    1.095018   0.000000
     8  C    2.426270   3.186097   0.000000
     9  H    3.475630   4.187611   1.087631   0.000000
    10  C    2.415990   3.178736   1.335865   2.150306   0.000000
    11  H    3.461545   4.177509   2.151150   2.577029   1.087757
    12  C    2.505752   3.449350   3.437650   4.211218   3.483930
    13  C    1.572039   2.182017   3.481320   4.423768   3.562054
    14  C    2.464937   3.181247   2.645189   3.130024   3.526409
    15  H    3.256952   4.180903   4.131266   4.891841   3.888841
    16  H    2.249784   2.492655   4.446534   5.440454   4.326054
    17  H    3.451643   4.049991   3.153567   3.299765   4.264053
    18  C    2.900159   3.881602   2.962381   3.454856   3.461571
    19  H    3.845746   4.869005   3.316763   3.522706   3.840801
    20  C    2.388612   2.759217   3.754687   4.468962   4.332721
    21  H    2.612832   2.547062   4.111523   4.816764   4.741630
    22  H    3.402257   3.773844   4.688792   5.322367   5.267808
                   11         12         13         14         15
    11  H    0.000000
    12  C    4.280904   0.000000
    13  C    4.544342   1.522975   0.000000
    14  C    4.502779   2.310760   2.260735   0.000000
    15  H    4.488505   1.085409   2.322917   3.371877   0.000000
    16  H    5.248071   2.230671   1.093560   3.309656   2.659216
    17  H    5.173544   3.280980   3.310384   1.093133   4.302394
    18  C    4.254097   1.340117   2.313023   1.520178   2.174237
    19  H    4.428893   2.174703   3.373854   2.319069   2.649263
    20  C    5.382809   2.351940   1.549788   1.549392   3.367256
    21  H    5.827169   3.357857   2.227531   2.226878   4.355383
    22  H    6.278898   2.658063   2.219147   2.218314   3.531344
                   16         17         18         19         20
    16  H    0.000000
    17  H    4.317560   0.000000
    18  C    3.280465   2.231216   0.000000
    19  H    4.302339   2.659446   1.085325   0.000000
    20  C    2.267084   2.268528   2.352017   3.368771   0.000000
    21  H    2.708082   2.705935   3.357228   4.355007   1.097445
    22  H    2.664090   2.668819   2.658562   3.536376   1.094711
                   21         22
    21  H    0.000000
    22  H    1.791563   0.000000
 Symmetry turned off by external request.
 Stoichiometry    C10H12
 Framework group  C1[X(C10H12)]
 Deg. of freedom    60
 Full point group                 C1      NOp   1
 Rotational constants (GHZ):           2.4663435           1.4521691           1.3356411
 Leave Link  202 at Fri Jun 25 15:50:45 2021, MaxMem=  8053063680 cpu:               0.2 elap:               0.0
 (Enter /public/software/g16-c01AVX2/g16/l601.exe)
 Copying SCF densities to generalized density rwf, IOpCl= 0 IROHF=0.

 **********************************************************************

            Population analysis using the SCF Density.

 **********************************************************************

 Alpha  occ. eigenvalues --  -10.18545 -10.18492 -10.18268 -10.18160 -10.17705
 Alpha  occ. eigenvalues --  -10.17623 -10.17474 -10.17335 -10.17218 -10.17143
 Alpha  occ. eigenvalues --   -0.87819  -0.80652  -0.72541  -0.71827  -0.67066
 Alpha  occ. eigenvalues --   -0.66194  -0.55822  -0.55442  -0.52961  -0.50886
 Alpha  occ. eigenvalues --   -0.49356  -0.47919  -0.45647  -0.41128  -0.39047
 Alpha  occ. eigenvalues --   -0.38313  -0.36661  -0.35875  -0.34086  -0.33854
 Alpha  occ. eigenvalues --   -0.32474  -0.31315  -0.30950  -0.30063  -0.23085
 Alpha  occ. eigenvalues --   -0.23004
 Alpha virt. eigenvalues --    0.02274   0.03408   0.09287   0.12415   0.13239
 Alpha virt. eigenvalues --    0.14482   0.15098   0.15833   0.16771   0.17328
 Alpha virt. eigenvalues --    0.17826   0.18110   0.18699   0.20010   0.20255
 Alpha virt. eigenvalues --    0.21370   0.21582   0.24279   0.24673   0.27016
 Alpha virt. eigenvalues --    0.28474   0.32440   0.34876   0.36698   0.38420
 Alpha virt. eigenvalues --    0.43222   0.49112   0.52734   0.55010   0.56969
 Alpha virt. eigenvalues --    0.57408   0.58151   0.58785   0.60822   0.62000
 Alpha virt. eigenvalues --    0.62976   0.63835   0.64519   0.64646   0.65940
 Alpha virt. eigenvalues --    0.67025   0.69094   0.70411   0.72784   0.75033
 Alpha virt. eigenvalues --    0.77452   0.78453   0.80588   0.82942   0.83814
 Alpha virt. eigenvalues --    0.84928   0.85369   0.85636   0.86405   0.86729
 Alpha virt. eigenvalues --    0.89026   0.89675   0.91404   0.92488   0.93722
 Alpha virt. eigenvalues --    0.95599   0.96008   0.97682   0.98948   1.01947
 Alpha virt. eigenvalues --    1.05424   1.08407   1.11362   1.17110   1.20991
 Alpha virt. eigenvalues --    1.30272   1.31391   1.39409   1.41089   1.46072
 Alpha virt. eigenvalues --    1.47918   1.49474   1.54969   1.58372   1.60676
 Alpha virt. eigenvalues --    1.63445   1.67027   1.68171   1.72635   1.76006
 Alpha virt. eigenvalues --    1.80707   1.82120   1.82514   1.83916   1.86211
 Alpha virt. eigenvalues --    1.91182   1.93541   1.97764   1.98752   2.03853
 Alpha virt. eigenvalues --    2.06096   2.08159   2.09345   2.12777   2.13044
 Alpha virt. eigenvalues --    2.16041   2.17931   2.20438   2.21957   2.23437
 Alpha virt. eigenvalues --    2.27947   2.31240   2.31609   2.38662   2.39788
 Alpha virt. eigenvalues --    2.42917   2.47121   2.48127   2.49935   2.54591
 Alpha virt. eigenvalues --    2.56609   2.58532   2.64548   2.65691   2.67010
 Alpha virt. eigenvalues --    2.70934   2.72925   2.73428   2.83223   2.88038
 Alpha virt. eigenvalues --    2.89084   2.93249   2.97467   4.12155   4.19491
 Alpha virt. eigenvalues --    4.25915   4.30722   4.39147   4.48478   4.53875
 Alpha virt. eigenvalues --    4.61778   4.68797   4.86826
          Condensed to atoms (all electrons):
               1          2          3          4          5          6
     1  C    5.090188   0.360552   0.358034  -0.087623   0.006281   0.362634
     2  H    0.360552   0.604556  -0.041805   0.004509  -0.000229  -0.038513
     3  H    0.358034  -0.041805   0.606807   0.003989   0.000270  -0.026861
     4  C   -0.087623   0.004509   0.003989   5.075376   0.355710   0.382105
     5  H    0.006281  -0.000229   0.000270   0.355710   0.627975  -0.034595
     6  C    0.362634  -0.038513  -0.026861   0.382105  -0.034595   5.057553
     7  H   -0.038764   0.003871  -0.006976  -0.032325  -0.006814   0.358474
     8  C   -0.044228  -0.000598  -0.001868   0.381156  -0.038793  -0.048795
     9  H    0.007451  -0.000178  -0.000181  -0.050663   0.000038   0.005032
    10  C    0.370790  -0.032837  -0.033608  -0.031983  -0.000345  -0.053958
    11  H   -0.050780   0.000425   0.000714   0.006957  -0.000234   0.004795
    12  C   -0.009204   0.006004   0.000335  -0.032703   0.001032  -0.032772
    13  C   -0.031130  -0.008098   0.002826  -0.065647   0.002584   0.368877
    14  C    0.002948   0.000515  -0.000265   0.351691  -0.043655  -0.067492
    15  H    0.000524   0.000519  -0.000001  -0.000329   0.000020   0.001207
    16  H   -0.000229   0.001078  -0.000014   0.006369  -0.000156  -0.039446
    17  H   -0.000170   0.000002   0.000003  -0.038345  -0.003223   0.006436
    18  C    0.000859   0.000791   0.000076  -0.030593   0.004785  -0.034415
    19  H   -0.000023   0.000022  -0.000000   0.000819  -0.000146  -0.000391
    20  C    0.005025   0.000228  -0.000136  -0.065737  -0.001848  -0.066832
    21  H    0.000162  -0.000014  -0.000008  -0.000751   0.001914  -0.000963
    22  H   -0.000136  -0.000003   0.000002   0.005824  -0.000139   0.005914
               7          8          9         10         11         12
     1  C   -0.038764  -0.044228   0.007451   0.370790  -0.050780  -0.009204
     2  H    0.003871  -0.000598  -0.000178  -0.032837   0.000425   0.006004
     3  H   -0.006976  -0.001868  -0.000181  -0.033608   0.000714   0.000335
     4  C   -0.032325   0.381156  -0.050663  -0.031983   0.006957  -0.032703
     5  H   -0.006814  -0.038793   0.000038  -0.000345  -0.000234   0.001032
     6  C    0.358474  -0.048795   0.005032  -0.053958   0.004795  -0.032772
     7  H    0.619853   0.004860  -0.000153   0.002906  -0.000172   0.004359
     8  C    0.004860   4.868058   0.359565   0.699367  -0.042122   0.000328
     9  H   -0.000153   0.359565   0.611447  -0.046863  -0.004832   0.000055
    10  C    0.002906   0.699367  -0.046863   4.880646   0.356770   0.001308
    11  H   -0.000172  -0.042122  -0.004832   0.356770   0.608424  -0.000005
    12  C    0.004359   0.000328   0.000055   0.001308  -0.000005   4.955779
    13  C   -0.036744  -0.001001  -0.000107   0.000200  -0.000072   0.383191
    14  C    0.001976  -0.045161   0.000241  -0.004323  -0.000115  -0.063313
    15  H   -0.000150  -0.000056  -0.000002   0.000025  -0.000001   0.363437
    16  H   -0.003302  -0.000217   0.000003  -0.000069   0.000004  -0.040096
    17  H   -0.000161   0.000215   0.000695  -0.000097   0.000005   0.007325
    18  C    0.001114  -0.004080   0.000062   0.002633   0.000004   0.668848
    19  H    0.000021   0.001715  -0.000078   0.000023  -0.000002  -0.046816
    20  C   -0.001649   0.005375  -0.000114   0.000294   0.000008  -0.064746
    21  H    0.001944   0.000285  -0.000000  -0.000036  -0.000000   0.006636
    22  H   -0.000139  -0.000132   0.000002  -0.000003  -0.000000   0.000957
              13         14         15         16         17         18
     1  C   -0.031130   0.002948   0.000524  -0.000229  -0.000170   0.000859
     2  H   -0.008098   0.000515   0.000519   0.001078   0.000002   0.000791
     3  H    0.002826  -0.000265  -0.000001  -0.000014   0.000003   0.000076
     4  C   -0.065647   0.351691  -0.000329   0.006369  -0.038345  -0.030593
     5  H    0.002584  -0.043655   0.000020  -0.000156  -0.003223   0.004785
     6  C    0.368877  -0.067492   0.001207  -0.039446   0.006436  -0.034415
     7  H   -0.036744   0.001976  -0.000150  -0.003302  -0.000161   0.001114
     8  C   -0.001001  -0.045161  -0.000056  -0.000217   0.000215  -0.004080
     9  H   -0.000107   0.000241  -0.000002   0.000003   0.000695   0.000062
    10  C    0.000200  -0.004323   0.000025  -0.000069  -0.000097   0.002633
    11  H   -0.000072  -0.000115  -0.000001   0.000004   0.000005   0.000004
    12  C    0.383191  -0.063313   0.363437  -0.040096   0.007325   0.668848
    13  C    5.009379  -0.036981  -0.045644   0.365614   0.005341  -0.063009
    14  C   -0.036981   5.050505   0.006713   0.005529   0.364857   0.380214
    15  H   -0.045644   0.006713   0.599166  -0.002488  -0.000129  -0.046851
    16  H    0.365614   0.005529  -0.002488   0.622654  -0.000187   0.007071
    17  H    0.005341   0.364857  -0.000129  -0.000187   0.624143  -0.040309
    18  C   -0.063009   0.380214  -0.046851   0.007071  -0.040309   4.942348
    19  H    0.006672  -0.045200  -0.004644  -0.000130  -0.002542   0.363072
    20  C    0.358781   0.356017   0.004882  -0.034212  -0.034868  -0.062840
    21  H   -0.038022  -0.038790  -0.000122  -0.001513  -0.001432   0.006587
    22  H   -0.030177  -0.029996  -0.000002  -0.001370  -0.001362   0.000917
              19         20         21         22
     1  C   -0.000023   0.005025   0.000162  -0.000136
     2  H    0.000022   0.000228  -0.000014  -0.000003
     3  H   -0.000000  -0.000136  -0.000008   0.000002
     4  C    0.000819  -0.065737  -0.000751   0.005824
     5  H   -0.000146  -0.001848   0.001914  -0.000139
     6  C   -0.000391  -0.066832  -0.000963   0.005914
     7  H    0.000021  -0.001649   0.001944  -0.000139
     8  C    0.001715   0.005375   0.000285  -0.000132
     9  H   -0.000078  -0.000114  -0.000000   0.000002
    10  C    0.000023   0.000294  -0.000036  -0.000003
    11  H   -0.000002   0.000008  -0.000000  -0.000000
    12  C   -0.046816  -0.064746   0.006636   0.000957
    13  C    0.006672   0.358781  -0.038022  -0.030177
    14  C   -0.045200   0.356017  -0.038790  -0.029996
    15  H   -0.004644   0.004882  -0.000122  -0.000002
    16  H   -0.000130  -0.034212  -0.001513  -0.001370
    17  H   -0.002542  -0.034868  -0.001432  -0.001362
    18  C    0.363072  -0.062840   0.006587   0.000917
    19  H    0.597701   0.004973  -0.000122  -0.000006
    20  C    0.004973   5.143666   0.358297   0.357730
    21  H   -0.000122   0.358297   0.614425  -0.033479
    22  H   -0.000006   0.357730  -0.033479   0.586808
 Mulliken charges:
               1
     1  C   -0.303159
     2  H    0.139203
     3  H    0.138667
     4  C   -0.137804
     5  H    0.129567
     6  C   -0.107996
     7  H    0.127971
     8  C   -0.093873
     9  H    0.118582
    10  C   -0.110838
    11  H    0.120229
    12  C   -0.109939
    13  C   -0.146832
    14  C   -0.145914
    15  H    0.123927
    16  H    0.115107
    17  H    0.113803
    18  C   -0.097283
    19  H    0.125083
    20  C   -0.262294
    21  H    0.125002
    22  H    0.138793
 Sum of Mulliken charges =  -0.00000
 Mulliken charges with hydrogens summed into heavy atoms:
               1
     1  C   -0.025289
     4  C   -0.008237
     6  C    0.019975
     8  C    0.024709
    10  C    0.009391
    12  C    0.013988
    13  C   -0.031725
    14  C   -0.032111
    18  C    0.027800
    20  C    0.001500
 APT charges:
               1
     1  C   -0.908192
     2  H    0.364931
     3  H    0.533673
     4  C   -0.515976
     5  H    0.450025
     6  C   -0.449765
     7  H    0.451887
     8  C   -0.605816
     9  H    0.524253
    10  C   -0.435001
    11  H    0.609918
    12  C   -0.489335
    13  C   -0.544013
    14  C   -0.539258
    15  H    0.512133
    16  H    0.494307
    17  H    0.497661
    18  C   -0.468846
    19  H    0.515317
    20  C   -0.918822
    21  H    0.404683
    22  H    0.516234
 Sum of APT charges =  -0.00000
 APT charges with hydrogens summed into heavy atoms:
               1
     1  C   -0.009588
     4  C   -0.065950
     6  C    0.002122
     8  C   -0.081563
    10  C    0.174917
    12  C    0.022798
    13  C   -0.049706
    14  C   -0.041597
    18  C    0.046471
    20  C    0.002095
 Electronic spatial extent (au):  <R**2>=           1119.4322
 Charge=              0.0000 electrons
 Dipole moment (field-independent basis, Debye):
    X=              0.1116    Y=             -0.1083    Z=             -0.0887  Tot=              0.1791
 Quadrupole moment (field-independent basis, Debye-Ang):
   XX=            -60.9263   YY=            -57.9348   ZZ=            -58.8272
   XY=             -0.3274   XZ=              1.5570   YZ=             -0.4237
 Traceless Quadrupole moment (field-independent basis, Debye-Ang):
   XX=             -1.6968   YY=              1.2946   ZZ=              0.4022
   XY=             -0.3274   XZ=              1.5570   YZ=             -0.4237
 Octapole moment (field-independent basis, Debye-Ang**2):
  XXX=              4.8947  YYY=              5.5147  ZZZ=              3.1228  XYY=              0.0165
  XXY=              1.4911  XXZ=              1.2296  XZZ=             -0.7901  YZZ=              0.2100
  YYZ=             -1.0258  XYZ=              0.5098
 Hexadecapole moment (field-independent basis, Debye-Ang**3):
 XXXX=           -787.9988 YYYY=           -387.9951 ZZZZ=           -337.2361 XXXY=            -30.0530
 XXXZ=             26.5594 YYYX=            -35.3563 YYYZ=             19.6643 ZZZX=             13.3235
 ZZZY=             20.6049 XXYY=           -192.9825 XXZZ=           -198.1600 YYZZ=           -121.6802
 XXYZ=              9.2184 YYXZ=              0.0735 ZZXY=            -12.6531
 N-N= 5.334158544311D+02 E-N=-1.965304478748D+03  KE= 3.844399969358D+02
  Exact polarizability:       0.000       0.000       0.000       0.000       0.000       0.000
 Approx polarizability:     130.270     -10.512     144.756      19.039     -17.352     139.883
 No NMR shielding tensors so no spin-rotation constants.
 Leave Link  601 at Fri Jun 25 15:50:45 2021, MaxMem=  8053063680 cpu:               2.2 elap:               0.1
 (Enter /public/software/g16-c01AVX2/g16/l9999.exe)

 This type of calculation cannot be archived.


 Discoveries are often made by not following instructions,
 by going off the main road, by trying the untried.
 -- Frank Tyger
 Job cpu time:       0 days  5 hours 29 minutes 19.7 seconds.
 Elapsed time:       0 days  0 hours 10 minutes 56.7 seconds.
 File lengths (MBytes):  RWF=    124 Int=      0 D2E=      0 Chk=      7 Scr=      2
 Normal termination of Gaussian 16 at Fri Jun 25 15:50:45 2021.
