 Entering Gaussian System, Link 0=g16
 Initial command:
 /public/software/g16-c01AVX2/g16/l1.exe "/public/home/QZX_HG/tmp/Gau-54429.inp" -scrdir="/public/home/QZX_HG/tmp/"
 Entering Link 1 = /public/software/g16-c01AVX2/g16/l1.exe PID=     54430.
  
 Copyright (c) 1988-2019, Gaussian, Inc.  All Rights Reserved.
  
 This is part of the Gaussian(R) 16 program.  It is based on
 the Gaussian(R) 09 system (copyright 2009, Gaussian, Inc.),
 the Gaussian(R) 03 system (copyright 2003, Gaussian, Inc.),
 the Gaussian(R) 98 system (copyright 1998, Gaussian, Inc.),
 the Gaussian(R) 94 system (copyright 1995, Gaussian, Inc.),
 the Gaussian 92(TM) system (copyright 1992, Gaussian, Inc.),
 the Gaussian 90(TM) system (copyright 1990, Gaussian, Inc.),
 the Gaussian 88(TM) system (copyright 1988, Gaussian, Inc.),
 the Gaussian 86(TM) system (copyright 1986, Carnegie Mellon
 University), and the Gaussian 82(TM) system (copyright 1983,
 Carnegie Mellon University). Gaussian is a federally registered
 trademark of Gaussian, Inc.
  
 This software contains proprietary and confidential information,
 including trade secrets, belonging to Gaussian, Inc.
  
 This software is provided under written license and may be
 used, copied, transmitted, or stored only in accord with that
 written license.
  
 The following legend is applicable only to US Government
 contracts under FAR:
  
                    RESTRICTED RIGHTS LEGEND
  
 Use, reproduction and disclosure by the US Government is
 subject to restrictions as set forth in subparagraphs (a)
 and (c) of the Commercial Computer Software - Restricted
 Rights clause in FAR 52.227-19.
  
 Gaussian, Inc.
 340 Quinnipiac St., Bldg. 40, Wallingford CT 06492
  
  
 ---------------------------------------------------------------
 Warning -- This program may not be used in any manner that
 competes with the business of Gaussian, Inc. or will provide
 assistance to any competitor of Gaussian, Inc.  The licensee
 of this program is prohibited from giving any competitor of
 Gaussian, Inc. access to this program.  By using this program,
 the user acknowledges that Gaussian, Inc. is engaged in the
 business of creating and licensing software in the field of
 computational chemistry and represents and warrants to the
 licensee that it is not a competitor of Gaussian, Inc. and that
 it will not use this program in any manner prohibited above.
 ---------------------------------------------------------------
  

 Cite this work as:
 Gaussian 16, Revision C.01,
 M. J. Frisch, G. W. Trucks, H. B. Schlegel, G. E. Scuseria, 
 M. A. Robb, J. R. Cheeseman, G. Scalmani, V. Barone, 
 G. A. Petersson, H. Nakatsuji, X. Li, M. Caricato, A. V. Marenich, 
 J. Bloino, B. G. Janesko, R. Gomperts, B. Mennucci, H. P. Hratchian, 
 J. V. Ortiz, A. F. Izmaylov, J. L. Sonnenberg, D. Williams-Young, 
 F. Ding, F. Lipparini, F. Egidi, J. Goings, B. Peng, A. Petrone, 
 T. Henderson, D. Ranasinghe, V. G. Zakrzewski, J. Gao, N. Rega, 
 G. Zheng, W. Liang, M. Hada, M. Ehara, K. Toyota, R. Fukuda, 
 J. Hasegawa, M. Ishida, T. Nakajima, Y. Honda, O. Kitao, H. Nakai, 
 T. Vreven, K. Throssell, J. A. Montgomery, Jr., J. E. Peralta, 
 F. Ogliaro, M. J. Bearpark, J. J. Heyd, E. N. Brothers, K. N. Kudin, 
 V. N. Staroverov, T. A. Keith, R. Kobayashi, J. Normand, 
 K. Raghavachari, A. P. Rendell, J. C. Burant, S. S. Iyengar, 
 J. Tomasi, M. Cossi, J. M. Millam, M. Klene, C. Adamo, R. Cammi, 
 J. W. Ochterski, R. L. Martin, K. Morokuma, O. Farkas, 
 J. B. Foresman, and D. J. Fox, Gaussian, Inc., Wallingford CT, 2019.
 
 ******************************************
 Gaussian 16:  ES64L-G16RevC.01  3-Jul-2019
                18-Jun-2021 
 ******************************************
 %nprocshared=32
 Will use up to   32 processors via shared memory.
 %mem=60GB
 ----------------------------------------------------------------------
 #p irc=(reverse,calcfc,maxpoints=300,recalc=30,stepsize=3) b3lyp/6-31g
 (d) g09def
 ----------------------------------------------------------------------
 1/10=4,14=-1,18=10,22=2,26=3,38=1,39=3,42=300,44=3,71=30,158=3,167=1,172=1/1,23;
 2/12=2,17=6,18=5,29=1,40=1/2;
 3/5=1,6=6,7=1,11=2,25=1,27=10,30=1,71=2,74=-5,75=-4,140=1,158=3/1,2,3;
 4/60=-1/1;
 5/5=2,38=5,87=10/2;
 8/6=4,10=90,11=11,87=10/1;
 11/6=1,8=1,9=11,15=111,16=1,87=10/1,2,10;
 10/6=1,13=1,87=10/2;
 6/7=2,8=2,9=2,10=2,28=1,87=10/1;
 7/10=1,25=1,87=10/1,2,3,16;
 1/10=4,14=-1,18=10,22=2,26=3,39=3,42=300,44=3,71=30,158=3,167=1/23(2);
 2/29=1/2;
 99/5=20/99;
 2/29=1/2;
 3/5=1,6=6,7=1,11=2,25=1,27=10,30=1,71=2,74=-5,75=-4,140=1,158=3/1,2,3;
 4/5=5,16=3,60=-1,69=1/1;
 5/5=2,38=5,87=10/2;
 8/6=4,10=90,11=11,87=10/1;
 11/6=1,8=1,9=11,15=111,16=1,87=10/1,2,10;
 10/6=1,13=1,87=10/2;
 7/10=1,25=1,87=10/1,2,3,16;
 1/14=-1,18=10,22=2,26=3,39=3,42=300,44=3,71=30,158=3,167=1/23(-8);
 2/29=1/2;
 6/7=2,8=2,9=2,10=2,19=2,28=1,87=10/1;
 99/5=20,9=1/99;
 Using 2006 physical constants.
 Leave Link    1 at Fri Jun 18 20:09:09 2021, MaxMem=  8053063680 cpu:               3.2 elap:               0.2
 (Enter /public/software/g16-c01AVX2/g16/l101.exe)
 ---
 Int
 ---
 Symbolic Z-matrix:
 Charge =  0 Multiplicity = 1
 C                     1.88782  -0.79971   0.49105 
 H                     1.70592  -1.26606   1.46415 
 H                     2.84485  -1.20032   0.11441 
 C                     0.75885   0.11187  -1.36381 
 H                     0.30176   0.18958  -2.34228 
 C                     0.80784  -1.05297  -0.55681 
 H                     0.70956  -2.04217  -0.99978 
 C                     1.40085   1.17297  -0.66566 
 H                     1.40039   2.21011  -0.9871 
 C                     1.94287   0.70449   0.5013 
 H                     2.48169   1.28937   1.23837 
 C                    -0.75887   0.11167   1.36384 
 C                    -0.80789  -1.05305   0.55669 
 C                    -1.94283   0.70461  -0.5012 
 H                    -0.3019    0.1892    2.34238 
 H                    -0.70968  -2.04232   0.99953 
 H                    -2.48158   1.28962  -1.23824 
 C                    -1.40079   1.1729    0.66581 
 H                    -1.40028   2.21      0.98738 
 C                    -1.88783  -0.7996   -0.49118 
 H                    -1.70588  -1.26579  -1.46435 
 H                    -2.84489  -1.20026  -0.11466 
 
 ITRead=  0  0  0  0  0  0  0  0  0  0  0  0  0  0  0  0  0  0  0  0
 ITRead=  0  0
 MicOpt= -1 -1 -1 -1 -1 -1 -1 -1 -1 -1 -1 -1 -1 -1 -1 -1 -1 -1 -1 -1
 MicOpt= -1 -1
 NAtoms=     22 NQM=       22 NQMF=       0 NMMI=      0 NMMIF=      0
                NMic=       0 NMicF=      0.
                    Isotopes and Nuclear Properties:
 (Nuclear quadrupole moments (NQMom) in fm**2, nuclear magnetic moments (NMagM)
  in nuclear magnetons)

  Atom         1           2           3           4           5           6           7           8           9          10
 IAtWgt=          12           1           1          12           1          12           1          12           1          12
 AtmWgt=  12.0000000   1.0078250   1.0078250  12.0000000   1.0078250  12.0000000   1.0078250  12.0000000   1.0078250  12.0000000
 NucSpn=           0           1           1           0           1           0           1           0           1           0
 AtZEff=  -0.0000000  -0.0000000  -0.0000000  -0.0000000  -0.0000000  -0.0000000  -0.0000000  -0.0000000  -0.0000000  -0.0000000
 NQMom=    0.0000000   0.0000000   0.0000000   0.0000000   0.0000000   0.0000000   0.0000000   0.0000000   0.0000000   0.0000000
 NMagM=    0.0000000   2.7928460   2.7928460   0.0000000   2.7928460   0.0000000   2.7928460   0.0000000   2.7928460   0.0000000
 AtZNuc=   6.0000000   1.0000000   1.0000000   6.0000000   1.0000000   6.0000000   1.0000000   6.0000000   1.0000000   6.0000000

  Atom        11          12          13          14          15          16          17          18          19          20
 IAtWgt=           1          12          12          12           1           1           1          12           1          12
 AtmWgt=   1.0078250  12.0000000  12.0000000  12.0000000   1.0078250   1.0078250   1.0078250  12.0000000   1.0078250  12.0000000
 NucSpn=           1           0           0           0           1           1           1           0           1           0
 AtZEff=  -0.0000000  -0.0000000  -0.0000000  -0.0000000  -0.0000000  -0.0000000  -0.0000000  -0.0000000  -0.0000000  -0.0000000
 NQMom=    0.0000000   0.0000000   0.0000000   0.0000000   0.0000000   0.0000000   0.0000000   0.0000000   0.0000000   0.0000000
 NMagM=    2.7928460   0.0000000   0.0000000   0.0000000   2.7928460   2.7928460   2.7928460   0.0000000   2.7928460   0.0000000
 AtZNuc=   1.0000000   6.0000000   6.0000000   6.0000000   1.0000000   1.0000000   1.0000000   6.0000000   1.0000000   6.0000000

  Atom        21          22
 IAtWgt=           1           1
 AtmWgt=   1.0078250   1.0078250
 NucSpn=           1           1
 AtZEff=  -0.0000000  -0.0000000
 NQMom=    0.0000000   0.0000000
 NMagM=    2.7928460   2.7928460
 AtZNuc=   1.0000000   1.0000000
 Leave Link  101 at Fri Jun 18 20:09:09 2021, MaxMem=  8053063680 cpu:               2.7 elap:               0.2
 (Enter /public/software/g16-c01AVX2/g16/l123.exe)
 IRC-IRC-IRC-IRC-IRC-IRC-IRC-IRC-IRC-IRC-IRC-IRC-IRC-IRC-IRC-IRC-IRC-IRC
 ------------------------------------------------------------------------
 INPUT DATA FOR L123
 ------------------------------------------------------------------------
 GENERAL PARAMETERS:
 Rxn path following direction = Reverse
 Maximum points per path      = 300
 Step size                    =   0.030 bohr
 Integration scheme           = HPC                                 
    Redo corrector integration= Yes                                 
    DWI Weight Power          =  2
    DWI will use Hessian update vectors when possible.
    Max correction cycles     =  20
 Initial Hessian              = CalcFC
 Hessian evaluation           = Analytic every  30 predictor steps
                              = Update at all corrector steps
 Hessian updating method      = Bofill                              
 ------------------------------------------------------------------------
 IRC-IRC-IRC-IRC-IRC-IRC-IRC-IRC-IRC-IRC-IRC-IRC-IRC-IRC-IRC-IRC-IRC-IRC
 Leave Link  123 at Fri Jun 18 20:09:09 2021, MaxMem=  8053063680 cpu:               2.8 elap:               0.2
 (Enter /public/software/g16-c01AVX2/g16/l202.exe)
                          Input orientation:                          
 ---------------------------------------------------------------------
 Center     Atomic      Atomic             Coordinates (Angstroms)
 Number     Number       Type             X           Y           Z
 ---------------------------------------------------------------------
      1          6           0        1.887824   -0.799710    0.491045
      2          1           0        1.705920   -1.266063    1.464150
      3          1           0        2.844850   -1.200324    0.114408
      4          6           0        0.758848    0.111866   -1.363810
      5          1           0        0.301755    0.189580   -2.342282
      6          6           0        0.807835   -1.052966   -0.556806
      7          1           0        0.709561   -2.042171   -0.999776
      8          6           0        1.400845    1.172970   -0.665659
      9          1           0        1.400394    2.210112   -0.987100
     10          6           0        1.942872    0.704491    0.501295
     11          1           0        2.481693    1.289371    1.238373
     12          6           0       -0.758874    0.111668    1.363844
     13          6           0       -0.807894   -1.053052    0.556690
     14          6           0       -1.942832    0.704605   -0.501204
     15          1           0       -0.301896    0.189204    2.342383
     16          1           0       -0.709678   -2.042321    0.999531
     17          1           0       -2.481575    1.289617   -1.238235
     18          6           0       -1.400789    1.172901    0.665809
     19          1           0       -1.400278    2.210003    0.987381
     20          6           0       -1.887832   -0.799599   -0.491176
     21          1           0       -1.705878   -1.265791   -1.464348
     22          1           0       -2.844888   -1.200258   -0.114662
 ---------------------------------------------------------------------
                    Distance matrix (angstroms):
                    1          2          3          4          5
     1  C    0.000000
     2  H    1.094307   0.000000
     3  H    1.103742   1.767282   0.000000
     4  C    2.355004   3.285269   2.873739   0.000000
     5  H    3.394415   4.310394   3.799275   1.082765   0.000000
     6  C    1.525944   2.221763   2.149808   1.417917   2.233375
     7  H    2.270366   2.768755   2.551386   2.185137   2.636160
     8  C    2.338072   3.252390   2.885512   1.423206   2.232962
     9  H    3.388441   4.264477   3.864045   2.226236   2.669471
    10  C    1.505243   2.205973   2.142794   2.287298   3.323301
    11  H    2.296832   2.680120   2.755678   3.335576   4.333908
    12  C    2.932132   2.825493   4.033515   3.121470   3.855694
    13  C    2.708392   2.681067   3.682369   2.738619   3.343575
    14  C    4.233373   4.589067   5.189377   2.897327   2.948388
    15  H    3.033196   2.630669   4.098374   3.855778   4.723397
    16  H    2.923980   2.579450   3.758600   3.518874   4.143922
    17  H    5.142698   5.600848   6.033262   3.450103   3.189973
    18  C    3.838843   4.029582   4.895068   3.147885   3.593632
    19  H    4.485124   4.686023   5.514846   3.819961   4.250374
    20  C    3.901325   4.117759   4.788068   2.932094   3.033045
    21  H    4.117704   4.496272   4.817248   2.825406   2.630487
    22  H    4.788098   4.817347   5.694347   4.033479   4.098207
                    6          7          8          9         10
     6  C    0.000000
     7  H    1.088305   0.000000
     8  C    2.306144   3.305547   0.000000
     9  H    3.344242   4.308053   1.085812   0.000000
    10  C    2.344470   3.364286   1.369324   2.185520   0.000000
    11  H    3.392788   4.387361   2.192514   2.640019   1.084295
    12  C    2.738585   3.518810   3.147957   3.820058   2.897389
    13  C    1.962257   2.388224   3.365686   4.231792   3.264773
    14  C    3.264708   3.850784   3.380324   3.698622   4.012942
    15  H    3.343619   4.143924   3.593806   4.250567   2.948577
    16  H    2.388274   2.451829   4.191093   5.146095   3.850875
    17  H    4.095395   4.619635   3.926148   3.997507   4.789997
    18  C    3.365604   4.190995   3.101928   3.413875   3.380317
    19  H    4.231695   5.145988   3.413835   3.426710   3.698581
    20  C    2.708343   2.923886   3.838863   4.485168   4.233389
    21  H    2.680985   2.579329   4.029539   4.686000   4.589024
    22  H    3.682332   3.758504   4.895105   5.514906   5.189424
                   11         12         13         14         15
    11  H    0.000000
    12  C    3.450218   0.000000
    13  C    4.095488   1.417912   0.000000
    14  C    4.790042   2.287299   2.344479   0.000000
    15  H    3.190231   1.082765   2.233368   3.323296   0.000000
    16  H    4.619747   2.185135   1.088305   3.364294   2.636141
    17  H    5.546856   3.335578   3.392796   1.084296   4.333905
    18  C    3.926202   1.423209   2.306144   1.369318   2.232963
    19  H    3.997532   2.226237   3.344240   2.185514   2.669476
    20  C    5.142751   2.355006   1.525951   1.505243   3.394404
    21  H    5.600831   3.285252   2.221762   2.205959   4.310380
    22  H    6.033359   2.873775   2.149820   2.142807   3.799274
                   16         17         18         19         20
    16  H    0.000000
    17  H    4.387371   0.000000
    18  C    3.305549   2.192511   0.000000
    19  H    4.308055   2.640015   1.085813   0.000000
    20  C    2.270377   2.296835   2.338072   3.388443   0.000000
    21  H    2.768775   2.680101   3.252363   4.264447   1.094306
    22  H    2.551395   2.755701   2.885557   3.864101   1.103742
                   21         22
    21  H    0.000000
    22  H    1.767283   0.000000
 Symmetry turned off by external request.
 Stoichiometry    C10H12
 Framework group  C1[X(C10H12)]
 Deg. of freedom    60
 Full point group                 C1      NOp   1
 Rotational constants (GHZ):           2.3861255           1.2976396           1.2398226
 Leave Link  202 at Fri Jun 18 20:09:09 2021, MaxMem=  8053063680 cpu:               4.5 elap:               0.3
 (Enter /public/software/g16-c01AVX2/g16/l301.exe)
 Standard basis: 6-31G(d) (6D, 7F)
 Ernie: Thresh=  0.10000D-02 Tol=  0.10000D-05 Strict=F.
   174 basis functions,   328 primitive gaussians,   174 cartesian basis functions
    36 alpha electrons       36 beta electrons
       nuclear repulsion energy       518.6860054376 Hartrees.
 IExCor=  402 DFT=T Ex+Corr=B3LYP ExCW=0 ScaHFX=  0.200000
 ScaDFX=  0.800000  0.720000  1.000000  0.810000 ScalE2=  1.000000  1.000000
 IRadAn=      4 IRanWt=     -1 IRanGd=            0 ICorTp=0 IEmpDi=  4
 NAtoms=   22 NActive=   22 NUniq=   22 SFac= 1.00D+00 NAtFMM=   60 NAOKFM=F Big=F
 Integral buffers will be    131072 words long.
 Raffenetti 2 integral format.
 Two-electron integral symmetry is turned off.
 Leave Link  301 at Fri Jun 18 20:09:10 2021, MaxMem=  8053063680 cpu:               4.7 elap:               0.2
 (Enter /public/software/g16-c01AVX2/g16/l302.exe)
 NPDir=0 NMtPBC=     1 NCelOv=     1 NCel=       1 NClECP=     1 NCelD=      1
         NCelK=      1 NCelE2=     1 NClLst=     1 CellRange=     0.0.
 One-electron integrals computed using PRISM.
 NBasis=   174 RedAO= T EigKep=  1.29D-03  NBF=   174
 NBsUse=   174 1.00D-06 EigRej= -1.00D+00 NBFU=   174
 Precomputing XC quadrature grid using
 IXCGrd= 4 IRadAn=           4 IRanWt=          -1 IRanGd=           0 AccXCQ= 1.00D-10.
 Generated NRdTot=       0 NPtTot=           0 NUsed=           0 NTot=          32
 NSgBfM=   174   174   174   174   174 MxSgAt=    22 MxSgA2=    22.
 Leave Link  302 at Fri Jun 18 20:09:12 2021, MaxMem=  8053063680 cpu:              51.4 elap:               2.2
 (Enter /public/software/g16-c01AVX2/g16/l303.exe)
 DipDrv:  MaxL=1.
 Leave Link  303 at Fri Jun 18 20:09:12 2021, MaxMem=  8053063680 cpu:               3.4 elap:               0.1
 (Enter /public/software/g16-c01AVX2/g16/l401.exe)
 ExpMin= 1.61D-01 ExpMax= 3.05D+03 ExpMxC= 4.57D+02 IAcc=2 IRadAn=         4 AccDes= 0.00D+00
 Harris functional with IExCor=  402 and IRadAn=      -1 diagonalized for initial guess.
 HarFok:  IExCor=  402 AccDes= 0.00D+00 IRadAn=        -1 IDoV= 1 UseB2=F ITyADJ=14
 ICtDFT=  3500011 ScaDFX=  1.000000  1.000000  1.000000  1.000000
 FoFCou: FMM=F IPFlag=           0 FMFlag=      100000 FMFlg1=           0
         NFxFlg=           0 DoJE=T BraDBF=F KetDBF=T FulRan=T
         wScrn=  0.000000 ICntrl=       500 IOpCl=  0 I1Cent=   200000004 NGrid=           0
         NMat0=    1 NMatS0=      1 NMatT0=    0 NMatD0=    1 NMtDS0=    0 NMtDT0=    0
 Symmetry not used in FoFCou.
 Harris En= -388.217757774649    
 JPrj=0 DoOrth=F DoCkMO=F.
 Leave Link  401 at Fri Jun 18 20:09:13 2021, MaxMem=  8053063680 cpu:              21.4 elap:               1.0
 (Enter /public/software/g16-c01AVX2/g16/l502.exe)
 Two-electron integral symmetry not used.
 Closed shell SCF:
 Using DIIS extrapolation, IDIIS=  1040.
 NGot=  8053063680 LenX=  8052995336 LenY=  8052964619
 Requested convergence on RMS density matrix=1.00D-08 within 128 cycles.
 Requested convergence on MAX density matrix=1.00D-06.
 Requested convergence on             energy=1.00D-06.
 No special actions if energy rises.
 Fock matrices will be formed incrementally for  20 cycles.
 Integral accuracy reduced to 1.0D-05 until final iterations.

 Cycle   1  Pass 0  IDiag  1:
 FoFJK:  IHMeth= 1 ICntrl=       0 DoSepK=F KAlg= 0 I1Cent=           0 FoldK=F
 IRaf= 970000000 NMat=       1 IRICut=       1 DoRegI=T DoRafI=F ISym2E= 0 IDoP0=0 IntGTp=1.
 FoFCou: FMM=F IPFlag=           0 FMFlag=      100000 FMFlg1=           0
         NFxFlg=           0 DoJE=F BraDBF=F KetDBF=F FulRan=T
         wScrn=  0.000000 ICntrl=         0 IOpCl=  0 I1Cent=           0 NGrid=           0
         NMat0=    1 NMatS0=      1 NMatT0=    0 NMatD0=    1 NMtDS0=    0 NMtDT0=    0
 Symmetry not used in FoFCou.
 E= -387.884019232483    
 DIIS: error= 2.79D-02 at cycle   1 NSaved=   1.
 NSaved= 1 IEnMin= 1 EnMin= -387.884019232483     IErMin= 1 ErrMin= 2.79D-02
 ErrMax= 2.79D-02  0.00D+00 EMaxC= 1.00D-01 BMatC= 2.55D-01 BMatP= 2.55D-01
 IDIUse=3 WtCom= 7.21D-01 WtEn= 2.79D-01
 Coeff-Com:  0.100D+01
 Coeff-En:   0.100D+01
 Coeff:      0.100D+01
 Gap=     0.137 Goal=   None    Shift=    0.000
 GapD=    0.137 DampG=1.000 DampE=0.500 DampFc=0.5000 IDamp=-1.
 Damping current iteration by 5.00D-01
 RMSDP=8.21D-03 MaxDP=1.46D-01              OVMax= 1.76D-01

 Cycle   2  Pass 0  IDiag  1:
 RMSU=  4.06D-03    CP:  9.76D-01
 E= -388.002987379265     Delta-E=       -0.118968146782 Rises=F Damp=T
 DIIS: error= 7.23D-03 at cycle   2 NSaved=   2.
 NSaved= 2 IEnMin= 2 EnMin= -388.002987379265     IErMin= 2 ErrMin= 7.23D-03
 ErrMax= 7.23D-03  0.00D+00 EMaxC= 1.00D-01 BMatC= 1.74D-02 BMatP= 2.55D-01
 IDIUse=3 WtCom= 9.28D-01 WtEn= 7.23D-02
 Coeff-Com:  0.968D-01 0.903D+00
 Coeff-En:   0.165D+00 0.835D+00
 Coeff:      0.102D+00 0.898D+00
 Gap=     0.142 Goal=   None    Shift=    0.000
 RMSDP=2.31D-03 MaxDP=3.13D-02 DE=-1.19D-01 OVMax= 1.04D-01

 Cycle   3  Pass 0  IDiag  1:
 RMSU=  1.82D-03    CP:  9.69D-01  6.56D-01
 E= -388.167600853124     Delta-E=       -0.164613473859 Rises=F Damp=F
 DIIS: error= 4.21D-03 at cycle   3 NSaved=   3.
 NSaved= 3 IEnMin= 3 EnMin= -388.167600853124     IErMin= 3 ErrMin= 4.21D-03
 ErrMax= 4.21D-03  0.00D+00 EMaxC= 1.00D-01 BMatC= 3.55D-03 BMatP= 1.74D-02
 IDIUse=3 WtCom= 9.58D-01 WtEn= 4.21D-02
 Coeff-Com: -0.119D-01 0.275D+00 0.737D+00
 Coeff-En:   0.000D+00 0.000D+00 0.100D+01
 Coeff:     -0.114D-01 0.264D+00 0.748D+00
 Gap=     0.138 Goal=   None    Shift=    0.000
 RMSDP=6.69D-04 MaxDP=8.94D-03 DE=-1.65D-01 OVMax= 2.37D-02

 Cycle   4  Pass 0  IDiag  1:
 RMSU=  4.61D-04    CP:  9.69D-01  7.33D-01  7.97D-01
 E= -388.169824921425     Delta-E=       -0.002224068301 Rises=F Damp=F
 DIIS: error= 2.32D-03 at cycle   4 NSaved=   4.
 NSaved= 4 IEnMin= 4 EnMin= -388.169824921425     IErMin= 4 ErrMin= 2.32D-03
 ErrMax= 2.32D-03  0.00D+00 EMaxC= 1.00D-01 BMatC= 1.07D-03 BMatP= 3.55D-03
 IDIUse=3 WtCom= 9.77D-01 WtEn= 2.32D-02
 Coeff-Com: -0.117D-01 0.896D-01 0.395D+00 0.527D+00
 Coeff-En:   0.000D+00 0.000D+00 0.222D+00 0.778D+00
 Coeff:     -0.114D-01 0.876D-01 0.391D+00 0.533D+00
 Gap=     0.139 Goal=   None    Shift=    0.000
 RMSDP=2.85D-04 MaxDP=6.23D-03 DE=-2.22D-03 OVMax= 1.78D-02

 Cycle   5  Pass 0  IDiag  1:
 RMSU=  1.73D-04    CP:  9.69D-01  7.25D-01  8.37D-01  5.40D-01
 E= -388.170786028804     Delta-E=       -0.000961107380 Rises=F Damp=F
 DIIS: error= 8.04D-04 at cycle   5 NSaved=   5.
 NSaved= 5 IEnMin= 5 EnMin= -388.170786028804     IErMin= 5 ErrMin= 8.04D-04
 ErrMax= 8.04D-04  0.00D+00 EMaxC= 1.00D-01 BMatC= 1.66D-04 BMatP= 1.07D-03
 IDIUse=3 WtCom= 9.92D-01 WtEn= 8.04D-03
 Coeff-Com: -0.496D-02 0.122D-01 0.112D+00 0.316D+00 0.565D+00
 Coeff-En:   0.000D+00 0.000D+00 0.000D+00 0.146D+00 0.854D+00
 Coeff:     -0.492D-02 0.121D-01 0.112D+00 0.314D+00 0.567D+00
 Gap=     0.138 Goal=   None    Shift=    0.000
 RMSDP=9.62D-05 MaxDP=1.69D-03 DE=-9.61D-04 OVMax= 6.06D-03

 Cycle   6  Pass 0  IDiag  1:
 RMSU=  3.74D-05    CP:  9.69D-01  7.25D-01  8.43D-01  6.37D-01  5.64D-01
 E= -388.170965130192     Delta-E=       -0.000179101388 Rises=F Damp=F
 DIIS: error= 1.30D-04 at cycle   6 NSaved=   6.
 NSaved= 6 IEnMin= 6 EnMin= -388.170965130192     IErMin= 6 ErrMin= 1.30D-04
 ErrMax= 1.30D-04  0.00D+00 EMaxC= 1.00D-01 BMatC= 4.59D-06 BMatP= 1.66D-04
 IDIUse=3 WtCom= 9.99D-01 WtEn= 1.30D-03
 Coeff-Com: -0.213D-02 0.344D-02 0.444D-01 0.142D+00 0.289D+00 0.523D+00
 Coeff-En:   0.000D+00 0.000D+00 0.000D+00 0.000D+00 0.000D+00 0.100D+01
 Coeff:     -0.212D-02 0.343D-02 0.444D-01 0.142D+00 0.289D+00 0.523D+00
 Gap=     0.138 Goal=   None    Shift=    0.000
 RMSDP=1.82D-05 MaxDP=3.44D-04 DE=-1.79D-04 OVMax= 6.99D-04

 Cycle   7  Pass 0  IDiag  1:
 RMSU=  7.76D-06    CP:  9.69D-01  7.25D-01  8.43D-01  6.38D-01  6.01D-01
                    CP:  5.97D-01
 E= -388.170969727031     Delta-E=       -0.000004596839 Rises=F Damp=F
 DIIS: error= 3.44D-05 at cycle   7 NSaved=   7.
 NSaved= 7 IEnMin= 7 EnMin= -388.170969727031     IErMin= 7 ErrMin= 3.44D-05
 ErrMax= 3.44D-05  0.00D+00 EMaxC= 1.00D-01 BMatC= 3.26D-07 BMatP= 4.59D-06
 IDIUse=1 WtCom= 1.00D+00 WtEn= 0.00D+00
 Coeff-Com: -0.712D-03 0.786D-03 0.145D-01 0.506D-01 0.110D+00 0.272D+00
 Coeff-Com:  0.553D+00
 Coeff:     -0.712D-03 0.786D-03 0.145D-01 0.506D-01 0.110D+00 0.272D+00
 Coeff:      0.553D+00
 Gap=     0.138 Goal=   None    Shift=    0.000
 RMSDP=4.49D-06 MaxDP=7.10D-05 DE=-4.60D-06 OVMax= 1.91D-04

 Initial convergence to 1.0D-05 achieved.  Increase integral accuracy.
 Cycle   8  Pass 1  IDiag  1:
 E= -388.171240916836     Delta-E=       -0.000271189804 Rises=F Damp=F
 DIIS: error= 5.21D-05 at cycle   1 NSaved=   1.
 NSaved= 1 IEnMin= 1 EnMin= -388.171240916836     IErMin= 1 ErrMin= 5.21D-05
 ErrMax= 5.21D-05  0.00D+00 EMaxC= 1.00D-01 BMatC= 6.62D-07 BMatP= 6.62D-07
 IDIUse=1 WtCom= 1.00D+00 WtEn= 0.00D+00
 Coeff-Com:  0.100D+01
 Coeff:      0.100D+01
 Gap=     0.138 Goal=   None    Shift=    0.000
 RMSDP=4.49D-06 MaxDP=7.10D-05 DE=-2.71D-04 OVMax= 3.85D-04

 Cycle   9  Pass 1  IDiag  1:
 RMSU=  2.37D-05    CP:  1.00D+00
 E= -388.171241791764     Delta-E=       -0.000000874929 Rises=F Damp=F
 DIIS: error= 1.97D-05 at cycle   2 NSaved=   2.
 NSaved= 2 IEnMin= 2 EnMin= -388.171241791764     IErMin= 2 ErrMin= 1.97D-05
 ErrMax= 1.97D-05  0.00D+00 EMaxC= 1.00D-01 BMatC= 9.84D-08 BMatP= 6.62D-07
 IDIUse=1 WtCom= 1.00D+00 WtEn= 0.00D+00
 Coeff-Com:  0.160D+00 0.840D+00
 Coeff:      0.160D+00 0.840D+00
 Gap=     0.138 Goal=   None    Shift=    0.000
 RMSDP=4.74D-06 MaxDP=8.95D-05 DE=-8.75D-07 OVMax= 2.17D-04

 Cycle  10  Pass 1  IDiag  1:
 RMSU=  4.74D-06    CP:  1.00D+00  1.00D+00
 E= -388.171241739512     Delta-E=        0.000000052253 Rises=F Damp=F
 DIIS: error= 2.20D-05 at cycle   3 NSaved=   3.
 NSaved= 3 IEnMin= 2 EnMin= -388.171241791764     IErMin= 2 ErrMin= 1.97D-05
 ErrMax= 2.20D-05  0.00D+00 EMaxC= 1.00D-01 BMatC= 1.55D-07 BMatP= 9.84D-08
 IDIUse=1 WtCom= 1.00D+00 WtEn= 0.00D+00
 Coeff-Com: -0.178D-01 0.564D+00 0.454D+00
 Coeff:     -0.178D-01 0.564D+00 0.454D+00
 Gap=     0.138 Goal=   None    Shift=    0.000
 RMSDP=2.47D-06 MaxDP=5.16D-05 DE= 5.23D-08 OVMax= 1.19D-04

 Cycle  11  Pass 1  IDiag  1:
 RMSU=  9.57D-07    CP:  1.00D+00  1.02D+00  5.27D-01
 E= -388.171241897201     Delta-E=       -0.000000157689 Rises=F Damp=F
 DIIS: error= 2.43D-06 at cycle   4 NSaved=   4.
 NSaved= 4 IEnMin= 4 EnMin= -388.171241897201     IErMin= 4 ErrMin= 2.43D-06
 ErrMax= 2.43D-06  0.00D+00 EMaxC= 1.00D-01 BMatC= 2.15D-09 BMatP= 9.84D-08
 IDIUse=1 WtCom= 1.00D+00 WtEn= 0.00D+00
 Coeff-Com: -0.133D-01 0.235D+00 0.207D+00 0.572D+00
 Coeff:     -0.133D-01 0.235D+00 0.207D+00 0.572D+00
 Gap=     0.138 Goal=   None    Shift=    0.000
 RMSDP=4.60D-07 MaxDP=6.62D-06 DE=-1.58D-07 OVMax= 1.54D-05

 Cycle  12  Pass 1  IDiag  1:
 RMSU=  2.22D-07    CP:  1.00D+00  1.02D+00  5.37D-01  6.36D-01
 E= -388.171241899288     Delta-E=       -0.000000002087 Rises=F Damp=F
 DIIS: error= 8.52D-07 at cycle   5 NSaved=   5.
 NSaved= 5 IEnMin= 5 EnMin= -388.171241899288     IErMin= 5 ErrMin= 8.52D-07
 ErrMax= 8.52D-07  0.00D+00 EMaxC= 1.00D-01 BMatC= 1.33D-10 BMatP= 2.15D-09
 IDIUse=1 WtCom= 1.00D+00 WtEn= 0.00D+00
 Coeff-Com: -0.478D-02 0.687D-01 0.578D-01 0.242D+00 0.636D+00
 Coeff:     -0.478D-02 0.687D-01 0.578D-01 0.242D+00 0.636D+00
 Gap=     0.138 Goal=   None    Shift=    0.000
 RMSDP=1.18D-07 MaxDP=2.26D-06 DE=-2.09D-09 OVMax= 7.23D-06

 Cycle  13  Pass 1  IDiag  1:
 RMSU=  8.87D-08    CP:  1.00D+00  1.03D+00  5.28D-01  6.82D-01  7.80D-01
 E= -388.171241899385     Delta-E=       -0.000000000098 Rises=F Damp=F
 DIIS: error= 4.07D-07 at cycle   6 NSaved=   6.
 NSaved= 6 IEnMin= 6 EnMin= -388.171241899385     IErMin= 6 ErrMin= 4.07D-07
 ErrMax= 4.07D-07  0.00D+00 EMaxC= 1.00D-01 BMatC= 4.12D-11 BMatP= 1.33D-10
 IDIUse=1 WtCom= 1.00D+00 WtEn= 0.00D+00
 Coeff-Com: -0.986D-03 0.867D-02 0.476D-02 0.636D-01 0.392D+00 0.532D+00
 Coeff:     -0.986D-03 0.867D-02 0.476D-02 0.636D-01 0.392D+00 0.532D+00
 Gap=     0.138 Goal=   None    Shift=    0.000
 RMSDP=4.46D-08 MaxDP=1.13D-06 DE=-9.75D-11 OVMax= 2.92D-06

 Cycle  14  Pass 1  IDiag  1:
 RMSU=  2.39D-08    CP:  1.00D+00  1.03D+00  5.30D-01  6.83D-01  8.48D-01
                    CP:  6.20D-01
 E= -388.171241899435     Delta-E=       -0.000000000050 Rises=F Damp=F
 DIIS: error= 7.12D-08 at cycle   7 NSaved=   7.
 NSaved= 7 IEnMin= 7 EnMin= -388.171241899435     IErMin= 7 ErrMin= 7.12D-08
 ErrMax= 7.12D-08  0.00D+00 EMaxC= 1.00D-01 BMatC= 1.78D-12 BMatP= 4.12D-11
 IDIUse=1 WtCom= 1.00D+00 WtEn= 0.00D+00
 Coeff-Com: -0.153D-03-0.972D-03-0.231D-02 0.132D-01 0.150D+00 0.265D+00
 Coeff-Com:  0.575D+00
 Coeff:     -0.153D-03-0.972D-03-0.231D-02 0.132D-01 0.150D+00 0.265D+00
 Coeff:      0.575D+00
 Gap=     0.138 Goal=   None    Shift=    0.000
 RMSDP=1.21D-08 MaxDP=1.76D-07 DE=-5.04D-11 OVMax= 4.47D-07

 Cycle  15  Pass 1  IDiag  1:
 RMSU=  9.08D-09    CP:  1.00D+00  1.03D+00  5.29D-01  6.81D-01  8.49D-01
                    CP:  6.56D-01  7.72D-01
 E= -388.171241899438     Delta-E=       -0.000000000002 Rises=F Damp=F
 DIIS: error= 2.04D-08 at cycle   8 NSaved=   8.
 NSaved= 8 IEnMin= 8 EnMin= -388.171241899438     IErMin= 8 ErrMin= 2.04D-08
 ErrMax= 2.04D-08  0.00D+00 EMaxC= 1.00D-01 BMatC= 1.54D-13 BMatP= 1.78D-12
 IDIUse=1 WtCom= 1.00D+00 WtEn= 0.00D+00
 Coeff-Com:  0.863D-05-0.101D-02-0.131D-02-0.274D-03 0.240D-01 0.611D-01
 Coeff-Com:  0.272D+00 0.645D+00
 Coeff:      0.863D-05-0.101D-02-0.131D-02-0.274D-03 0.240D-01 0.611D-01
 Coeff:      0.272D+00 0.645D+00
 Gap=     0.138 Goal=   None    Shift=    0.000
 RMSDP=3.52D-09 MaxDP=7.24D-08 DE=-2.27D-12 OVMax= 1.98D-07

 SCF Done:  E(RB3LYP) =  -388.171241899     A.U. after   15 cycles
            NFock= 15  Conv=0.35D-08     -V/T= 2.0099
 KE= 3.843576687496D+02 PE=-1.935787632741D+03 EE= 6.445727166542D+02
 Leave Link  502 at Fri Jun 18 20:09:23 2021, MaxMem=  8053063680 cpu:             243.5 elap:              10.3
 (Enter /public/software/g16-c01AVX2/g16/l801.exe)
 DoSCS=F DFT=T ScalE2(SS,OS)=  1.000000  1.000000
 Range of M.O.s used for correlation:     1   174
 NBasis=   174 NAE=    36 NBE=    36 NFC=     0 NFV=     0
 NROrb=    174 NOA=    36 NOB=    36 NVA=   138 NVB=   138
 Leave Link  801 at Fri Jun 18 20:09:24 2021, MaxMem=  8053063680 cpu:               2.0 elap:               0.2
 (Enter /public/software/g16-c01AVX2/g16/l1101.exe)
 Using compressed storage, NAtomX=    22.
 Will process     23 centers per pass.
 Leave Link 1101 at Fri Jun 18 20:09:26 2021, MaxMem=  8053063680 cpu:              28.2 elap:               1.9
 (Enter /public/software/g16-c01AVX2/g16/l1102.exe)
 Symmetrizing basis deriv contribution to polar:
 IMax=3 JMax=2 DiffMx= 0.00D+00
 Leave Link 1102 at Fri Jun 18 20:09:26 2021, MaxMem=  8053063680 cpu:               1.8 elap:               0.1
 (Enter /public/software/g16-c01AVX2/g16/l1110.exe)
 Forming Gx(P) for the SCF density, NAtomX=    22.
 Integral derivatives from FoFJK, PRISM(SPDF).
 Do as many integral derivatives as possible in FoFJK.
 G2DrvN: MDV=    8053061278.
 G2DrvN: will do    23 centers at a time, making    1 passes.
 Calling FoFCou, ICntrl=  3107 FMM=F I1Cent=   0 AccDes= 1.00D-10.
 FoFJK:  IHMeth= 1 ICntrl=    3107 DoSepK=F KAlg= 0 I1Cent=           0 FoldK=F
 IRaf=         0 NMat=       1 IRICut=       1 DoRegI=T DoRafI=F ISym2E= 0 IDoP0=0 IntGTp=1.
 FoFCou: FMM=F IPFlag=           0 FMFlag=      100000 FMFlg1=           0
         NFxFlg=           0 DoJE=F BraDBF=F KetDBF=F FulRan=T
         wScrn=  0.000000 ICntrl=      3107 IOpCl=  0 I1Cent=           0 NGrid=           0
         NMat0=    1 NMatS0=      1 NMatT0=    0 NMatD0=    1 NMtDS0=    0 NMtDT0=    0
 Symmetry not used in FoFCou.
 End of G2Drv F.D. properties file   721 does not exist.
 End of G2Drv F.D. properties file   722 does not exist.
 End of G2Drv F.D. properties file   788 does not exist.
 Leave Link 1110 at Fri Jun 18 20:09:30 2021, MaxMem=  8053063680 cpu:             117.0 elap:               4.5
 (Enter /public/software/g16-c01AVX2/g16/l1002.exe)
 Minotr:  Closed shell wavefunction.
          IDoAtm=1111111111111111111111
          Direct CPHF calculation.
          Differentiating once with respect to nuclear coordinates.
          Requested convergence is 1.0D-08 RMS, and 1.0D-07 maximum.
          Secondary convergence is 1.0D-12 RMS, and 1.0D-12 maximum.
          NewPWx=T KeepS1=F KeepF1=F KeepIn=T MapXYZ=F SortEE=F KeepMc=T.
         4611 words used for storage of precomputed grid.
 Keep R1 ints in memory in canonical form, NReq=147842442.
 FoFCou: FMM=F IPFlag=           0 FMFlag=           0 FMFlg1=           0
         NFxFlg=           0 DoJE=F BraDBF=F KetDBF=F FulRan=T
         wScrn=  0.000000 ICntrl=       600 IOpCl=  0 I1Cent=           0 NGrid=           0
         NMat0=    1 NMatS0=  15225 NMatT0=    0 NMatD0=    1 NMtDS0=    0 NMtDT0=    0
 Symmetry not used in FoFCou.
 Two-electron integral symmetry not used.
          MDV=    8053063680 using IRadAn=       2.
          Solving linear equations simultaneously, MaxMat=       0.
          There are    69 degrees of freedom in the 1st order CPHF.  IDoFFX=6 NUNeed=     0.
     63 vectors produced by pass  0 Test12= 7.20D-15 1.45D-09 XBig12= 1.10D-01 1.26D-01.
 AX will form    63 AO Fock derivatives at one time.
     63 vectors produced by pass  1 Test12= 7.20D-15 1.45D-09 XBig12= 8.18D-03 2.02D-02.
     63 vectors produced by pass  2 Test12= 7.20D-15 1.45D-09 XBig12= 5.92D-05 9.60D-04.
     63 vectors produced by pass  3 Test12= 7.20D-15 1.45D-09 XBig12= 1.23D-07 3.83D-05.
     63 vectors produced by pass  4 Test12= 7.20D-15 1.45D-09 XBig12= 1.32D-10 1.47D-06.
     51 vectors produced by pass  5 Test12= 7.20D-15 1.45D-09 XBig12= 1.00D-13 3.11D-08.
 InvSVY:  IOpt=1 It=  1 EMax= 3.89D-16
 Solved reduced A of dimension   366 with    69 vectors.
 End of Minotr F.D. properties file   721 does not exist.
 End of Minotr F.D. properties file   722 does not exist.
 End of Minotr F.D. properties file   788 does not exist.
 Leave Link 1002 at Fri Jun 18 20:09:43 2021, MaxMem=  8053063680 cpu:             314.8 elap:              12.8
 (Enter /public/software/g16-c01AVX2/g16/l601.exe)
 Copying SCF densities to generalized density rwf, IOpCl= 0 IROHF=0.

 **********************************************************************

            Population analysis using the SCF Density.

 **********************************************************************

 Alpha  occ. eigenvalues --  -10.18898 -10.18896 -10.18107 -10.18107 -10.17651
 Alpha  occ. eigenvalues --  -10.17651 -10.17330 -10.17328 -10.17152 -10.17151
 Alpha  occ. eigenvalues --   -0.85673  -0.82968  -0.70914  -0.69760  -0.68339
 Alpha  occ. eigenvalues --   -0.67487  -0.55237  -0.54264  -0.52422  -0.50876
 Alpha  occ. eigenvalues --   -0.50711  -0.49236  -0.44326  -0.41434  -0.38416
 Alpha  occ. eigenvalues --   -0.37175  -0.36505  -0.36121  -0.35582  -0.35147
 Alpha  occ. eigenvalues --   -0.34874  -0.33355  -0.30783  -0.25357  -0.25079
 Alpha  occ. eigenvalues --   -0.16821
 Alpha virt. eigenvalues --   -0.02978   0.04303   0.05054   0.10052   0.12818
 Alpha virt. eigenvalues --    0.13826   0.14804   0.14973   0.15946   0.16444
 Alpha virt. eigenvalues --    0.17326   0.17762   0.18195   0.19673   0.19841
 Alpha virt. eigenvalues --    0.21690   0.22958   0.23885   0.24160   0.24711
 Alpha virt. eigenvalues --    0.30823   0.33746   0.37078   0.37422   0.41721
 Alpha virt. eigenvalues --    0.43232   0.49660   0.51855   0.53867   0.56218
 Alpha virt. eigenvalues --    0.56336   0.57996   0.58248   0.59378   0.59506
 Alpha virt. eigenvalues --    0.60158   0.62447   0.62948   0.63769   0.66306
 Alpha virt. eigenvalues --    0.67869   0.70189   0.71998   0.72049   0.73680
 Alpha virt. eigenvalues --    0.78577   0.79421   0.80779   0.83611   0.83778
 Alpha virt. eigenvalues --    0.84910   0.85569   0.85718   0.85774   0.86819
 Alpha virt. eigenvalues --    0.87268   0.88426   0.90485   0.92821   0.93271
 Alpha virt. eigenvalues --    0.93363   0.96542   0.97435   0.98797   1.00451
 Alpha virt. eigenvalues --    1.08327   1.13354   1.16965   1.17930   1.21326
 Alpha virt. eigenvalues --    1.26749   1.28330   1.33685   1.36751   1.39296
 Alpha virt. eigenvalues --    1.42926   1.43033   1.47630   1.47796   1.52602
 Alpha virt. eigenvalues --    1.52736   1.55702   1.59798   1.63397   1.66461
 Alpha virt. eigenvalues --    1.71014   1.71170   1.82809   1.84372   1.89276
 Alpha virt. eigenvalues --    1.89752   1.96268   1.96681   1.99465   2.03456
 Alpha virt. eigenvalues --    2.05003   2.05924   2.08648   2.10625   2.12352
 Alpha virt. eigenvalues --    2.13415   2.16347   2.17115   2.22196   2.26835
 Alpha virt. eigenvalues --    2.27626   2.30983   2.32019   2.37696   2.40274
 Alpha virt. eigenvalues --    2.42366   2.43786   2.46768   2.49416   2.50820
 Alpha virt. eigenvalues --    2.54354   2.63251   2.65132   2.66961   2.67657
 Alpha virt. eigenvalues --    2.68341   2.70230   2.72971   2.73094   2.94033
 Alpha virt. eigenvalues --    2.95404   2.97987   2.98910   4.08386   4.17730
 Alpha virt. eigenvalues --    4.20253   4.35092   4.37007   4.41682   4.49792
 Alpha virt. eigenvalues --    4.61982   4.63955   4.66402
          Condensed to atoms (all electrons):
               1          2          3          4          5          6
     1  C    5.079511   0.360364   0.345408  -0.073716   0.006518   0.373890
     2  H    0.360364   0.595827  -0.037240   0.005516  -0.000144  -0.036661
     3  H    0.345408  -0.037240   0.598654   0.000091  -0.000199  -0.028313
     4  C   -0.073716   0.005516   0.000091   4.980490   0.363819   0.515071
     5  H    0.006518  -0.000144  -0.000199   0.363819   0.596439  -0.050881
     6  C    0.373890  -0.036661  -0.028313   0.515071  -0.050881   5.090356
     7  H   -0.042393   0.000207  -0.000931  -0.042587  -0.003362   0.360886
     8  C   -0.055892   0.004086  -0.003454   0.492165  -0.043343  -0.036900
     9  H    0.007794  -0.000135  -0.000192  -0.051936  -0.003037   0.006478
    10  C    0.376125  -0.030632  -0.034537  -0.047126   0.006070  -0.076558
    11  H   -0.048854  -0.000868   0.000730   0.006850  -0.000150   0.004654
    12  C   -0.007899  -0.001402   0.001555  -0.042636  -0.000055  -0.034996
    13  C   -0.022836  -0.003290   0.003740  -0.034997  -0.000628   0.133288
    14  C    0.000125   0.000015  -0.000045   0.040636   0.001296  -0.008603
    15  H    0.000284   0.001164   0.000026  -0.000055  -0.000004  -0.000628
    16  H   -0.002770   0.002560  -0.000105   0.002555  -0.000051  -0.021728
    17  H   -0.000002  -0.000000   0.000000  -0.001941   0.000064   0.000206
    18  C   -0.000348   0.000396  -0.000052   0.009273  -0.000241  -0.009276
    19  H   -0.000017   0.000003  -0.000001   0.000216  -0.000016  -0.000038
    20  C    0.002465   0.000296  -0.000078  -0.007902   0.000284  -0.022837
    21  H    0.000296  -0.000006  -0.000009  -0.001403   0.001165  -0.003291
    22  H   -0.000078  -0.000009   0.000000   0.001555   0.000026   0.003740
               7          8          9         10         11         12
     1  C   -0.042393  -0.055892   0.007794   0.376125  -0.048854  -0.007899
     2  H    0.000207   0.004086  -0.000135  -0.030632  -0.000868  -0.001402
     3  H   -0.000931  -0.003454  -0.000192  -0.034537   0.000730   0.001555
     4  C   -0.042587   0.492165  -0.051936  -0.047126   0.006850  -0.042636
     5  H   -0.003362  -0.043343  -0.003037   0.006070  -0.000150  -0.000055
     6  C    0.360886  -0.036900   0.006478  -0.076558   0.004654  -0.034996
     7  H    0.608386   0.006791  -0.000133   0.004628  -0.000137   0.002555
     8  C    0.006791   4.802484   0.365137   0.596838  -0.041496   0.009275
     9  H   -0.000133   0.365137   0.614688  -0.055344  -0.004141   0.000216
    10  C    0.004628   0.596838  -0.055344   5.018399   0.363536   0.040635
    11  H   -0.000137  -0.041496  -0.004141   0.363536   0.598670  -0.001941
    12  C    0.002555   0.009275   0.000216   0.040635  -0.001941   4.980474
    13  C   -0.021730  -0.009273  -0.000038  -0.008601   0.000206   0.515070
    14  C    0.000089  -0.004814  -0.000128  -0.001791   0.000012  -0.047129
    15  H   -0.000051  -0.000241  -0.000016   0.001294   0.000064   0.363820
    16  H   -0.002432   0.000074   0.000004   0.000089   0.000004  -0.042587
    17  H    0.000004   0.000094   0.000020   0.000012  -0.000000   0.006850
    18  C    0.000074  -0.005113   0.000418  -0.004812   0.000094   0.492172
    19  H    0.000004   0.000418   0.000103  -0.000127   0.000020  -0.051935
    20  C   -0.002771  -0.000348  -0.000017   0.000125  -0.000002  -0.073716
    21  H    0.002560   0.000396   0.000003   0.000015  -0.000000   0.005516
    22  H   -0.000105  -0.000052  -0.000001  -0.000045   0.000000   0.000093
              13         14         15         16         17         18
     1  C   -0.022836   0.000125   0.000284  -0.002770  -0.000002  -0.000348
     2  H   -0.003290   0.000015   0.001164   0.002560  -0.000000   0.000396
     3  H    0.003740  -0.000045   0.000026  -0.000105   0.000000  -0.000052
     4  C   -0.034997   0.040636  -0.000055   0.002555  -0.001941   0.009273
     5  H   -0.000628   0.001296  -0.000004  -0.000051   0.000064  -0.000241
     6  C    0.133288  -0.008603  -0.000628  -0.021728   0.000206  -0.009276
     7  H   -0.021730   0.000089  -0.000051  -0.002432   0.000004   0.000074
     8  C   -0.009273  -0.004814  -0.000241   0.000074   0.000094  -0.005113
     9  H   -0.000038  -0.000128  -0.000016   0.000004   0.000020   0.000418
    10  C   -0.008601  -0.001791   0.001294   0.000089   0.000012  -0.004812
    11  H    0.000206   0.000012   0.000064   0.000004  -0.000000   0.000094
    12  C    0.515070  -0.047129   0.363820  -0.042587   0.006850   0.492172
    13  C    5.090350  -0.076558  -0.050881   0.360886   0.004654  -0.036897
    14  C   -0.076558   5.018391   0.006070   0.004628   0.363537   0.596848
    15  H   -0.050881   0.006070   0.596439  -0.003362  -0.000150  -0.043342
    16  H    0.360886   0.004628  -0.003362   0.608383  -0.000137   0.006791
    17  H    0.004654   0.363537  -0.000150  -0.000137   0.598666  -0.041494
    18  C   -0.036897   0.596848  -0.043342   0.006791  -0.041494   4.802466
    19  H    0.006477  -0.055344  -0.003037  -0.000133  -0.004141   0.365136
    20  C    0.373894   0.376126   0.006518  -0.042393  -0.048854  -0.055896
    21  H   -0.036662  -0.030633  -0.000144   0.000207  -0.000868   0.004086
    22  H   -0.028314  -0.034535  -0.000199  -0.000931   0.000730  -0.003453
              19         20         21         22
     1  C   -0.000017   0.002465   0.000296  -0.000078
     2  H    0.000003   0.000296  -0.000006  -0.000009
     3  H   -0.000001  -0.000078  -0.000009   0.000000
     4  C    0.000216  -0.007902  -0.001403   0.001555
     5  H   -0.000016   0.000284   0.001165   0.000026
     6  C   -0.000038  -0.022837  -0.003291   0.003740
     7  H    0.000004  -0.002771   0.002560  -0.000105
     8  C    0.000418  -0.000348   0.000396  -0.000052
     9  H    0.000103  -0.000017   0.000003  -0.000001
    10  C   -0.000127   0.000125   0.000015  -0.000045
    11  H    0.000020  -0.000002  -0.000000   0.000000
    12  C   -0.051935  -0.073716   0.005516   0.000093
    13  C    0.006477   0.373894  -0.036662  -0.028314
    14  C   -0.055344   0.376126  -0.030633  -0.034535
    15  H   -0.003037   0.006518  -0.000144  -0.000199
    16  H   -0.000133  -0.042393   0.000207  -0.000931
    17  H   -0.004141  -0.048854  -0.000868   0.000730
    18  C    0.365136  -0.055896   0.004086  -0.003453
    19  H    0.614687   0.007794  -0.000135  -0.000192
    20  C    0.007794   5.079517   0.360364   0.345406
    21  H   -0.000135   0.360364   0.595828  -0.037240
    22  H   -0.000192   0.345406  -0.037240   0.598653
 Mulliken charges:
               1
     1  C   -0.297976
     2  H    0.139952
     3  H    0.154952
     4  C   -0.113938
     5  H    0.126432
     6  C   -0.157857
     7  H    0.130449
     8  C   -0.076834
     9  H    0.120258
    10  C   -0.148192
    11  H    0.122750
    12  C   -0.113933
    13  C   -0.157859
    14  C   -0.148192
    15  H    0.126431
    16  H    0.130447
    17  H    0.122752
    18  C   -0.076829
    19  H    0.120258
    20  C   -0.297975
    21  H    0.139954
    22  H    0.154951
 Sum of Mulliken charges =  -0.00000
 Mulliken charges with hydrogens summed into heavy atoms:
               1
     1  C   -0.003072
     4  C    0.012494
     6  C   -0.027408
     8  C    0.043423
    10  C   -0.025442
    12  C    0.012498
    13  C   -0.027412
    14  C   -0.025441
    18  C    0.043429
    20  C   -0.003071
 APT charges:
               1
     1  C   -0.902407
     2  H    0.384031
     3  H    0.543907
     4  C   -0.531048
     5  H    0.458118
     6  C   -0.524505
     7  H    0.467671
     8  C   -0.437455
     9  H    0.503977
    10  C   -0.522414
    11  H    0.560121
    12  C   -0.531096
    13  C   -0.524492
    14  C   -0.522371
    15  H    0.458148
    16  H    0.467685
    17  H    0.560110
    18  C   -0.437464
    19  H    0.503966
    20  C   -0.902405
    21  H    0.384011
    22  H    0.543914
 Sum of APT charges =  -0.00000
 APT charges with hydrogens summed into heavy atoms:
               1
     1  C    0.025531
     4  C   -0.072929
     6  C   -0.056834
     8  C    0.066521
    10  C    0.037707
    12  C   -0.072949
    13  C   -0.056807
    14  C    0.037739
    18  C    0.066502
    20  C    0.025520
 Electronic spatial extent (au):  <R**2>=           1189.7581
 Charge=             -0.0000 electrons
 Dipole moment (field-independent basis, Debye):
    X=             -0.0001    Y=             -0.4143    Z=             -0.0000  Tot=              0.4143
 Quadrupole moment (field-independent basis, Debye-Ang):
   XX=            -60.9491   YY=            -56.4451   ZZ=            -58.4984
   XY=             -0.0001   XZ=              3.0624   YZ=             -0.0001
 Traceless Quadrupole moment (field-independent basis, Debye-Ang):
   XX=             -2.3182   YY=              2.1858   ZZ=              0.1325
   XY=             -0.0001   XZ=              3.0624   YZ=             -0.0001
 Octapole moment (field-independent basis, Debye-Ang**2):
  XXX=              0.0007  YYY=              2.5833  ZZZ=              0.0011  XYY=             -0.0001
  XXY=             -1.3050  XXZ=             -0.0001  XZZ=             -0.0006  YZZ=              1.2799
  YYZ=             -0.0000  XYZ=              0.5960
 Hexadecapole moment (field-independent basis, Debye-Ang**3):
 XXXX=           -895.8621 YYYY=           -384.5067 ZZZZ=           -339.0869 XXXY=              0.0000
 XXXZ=             22.4677 YYYX=              0.0006 YYYZ=             -0.0004 ZZZX=             12.6215
 ZZZY=             -0.0007 XXYY=           -207.2719 XXZZ=           -210.3779 YYZZ=           -120.7058
 XXYZ=              0.0004 YYXZ=              0.0520 ZZXY=             -0.0010
 N-N= 5.186860054376D+02 E-N=-1.935787626514D+03  KE= 3.843576687496D+02
  Exact polarizability:       0.000       0.000       0.000       0.000       0.000       0.000
 Approx polarizability:     241.123       0.001     161.148      -0.971      -0.003     185.616
 No NMR shielding tensors so no spin-rotation constants.
 Leave Link  601 at Fri Jun 18 20:09:45 2021, MaxMem=  8053063680 cpu:              23.3 elap:               1.2
 (Enter /public/software/g16-c01AVX2/g16/l701.exe)
 ... and contract with generalized density number  0.
 Compute integral second derivatives.
 Leave Link  701 at Fri Jun 18 20:09:45 2021, MaxMem=  8053063680 cpu:              10.5 elap:               0.5
 (Enter /public/software/g16-c01AVX2/g16/l702.exe)
 L702 exits ... SP integral derivatives will be done elsewhere.
 Leave Link  702 at Fri Jun 18 20:09:45 2021, MaxMem=  8053063680 cpu:               0.8 elap:               0.1
 (Enter /public/software/g16-c01AVX2/g16/l703.exe)
 Integral derivatives from FoFJK, PRISM(SPDF).
 Compute integral second derivatives, UseDBF=F ICtDFT=           0.
 Calling FoFJK, ICntrl=    100127 FMM=F ISym2X=0 I1Cent= 0 IOpClX= 0 NMat=1 NMatS=1 NMatT=0.
 FoFJK:  IHMeth= 1 ICntrl=  100127 DoSepK=F KAlg= 0 I1Cent=           0 FoldK=F
 IRaf=         0 NMat=       1 IRICut=       1 DoRegI=T DoRafI=F ISym2E= 0 IDoP0=0 IntGTp=1.
 FoFCou: FMM=F IPFlag=           0 FMFlag=      100000 FMFlg1=         800
         NFxFlg=           0 DoJE=F BraDBF=F KetDBF=F FulRan=T
         wScrn=  0.000000 ICntrl=    100127 IOpCl=  0 I1Cent=           0 NGrid=           0
         NMat0=    1 NMatS0=      1 NMatT0=    0 NMatD0=    1 NMtDS0=    0 NMtDT0=    0
 Symmetry not used in FoFCou.
 Leave Link  703 at Fri Jun 18 20:09:54 2021, MaxMem=  8053063680 cpu:             219.8 elap:               8.4
 (Enter /public/software/g16-c01AVX2/g16/l716.exe)
 Dipole        =-2.98612774D-05-1.63002365D-01-7.95092105D-06
 Polarizability= 0.00000000D+00 0.00000000D+00 0.00000000D+00
                 0.00000000D+00 0.00000000D+00 0.00000000D+00
 -------------------------------------------------------------------
 Center     Atomic                   Forces (Hartrees/Bohr)
 Number     Number              X              Y              Z
 -------------------------------------------------------------------
      1        6          -0.000000997    0.000001112   -0.000000053
      2        1          -0.000000108    0.000001191   -0.000000745
      3        1          -0.000000106   -0.000000812   -0.000000934
      4        6          -0.000002059   -0.000002420    0.000001059
      5        1          -0.000000390   -0.000000159   -0.000000526
      6        6          -0.000001476   -0.000002383   -0.000003563
      7        1           0.000000570   -0.000000327   -0.000001422
      8        6          -0.000003968   -0.000000707    0.000005624
      9        1          -0.000000423    0.000000274   -0.000000561
     10        6           0.000002744    0.000000551   -0.000003316
     11        1          -0.000000159    0.000000234   -0.000000479
     12        6          -0.000002450    0.000000113    0.000002482
     13        6           0.000001189    0.000003632   -0.000002782
     14        6           0.000000377   -0.000000783   -0.000001313
     15        1           0.000004541    0.000001071   -0.000000592
     16        1           0.000000815   -0.000000197    0.000000030
     17        1          -0.000000558   -0.000000373    0.000001219
     18        6           0.000002861    0.000000963    0.000001237
     19        1           0.000000052   -0.000000237    0.000000726
     20        6           0.000000399   -0.000000375    0.000002219
     21        1          -0.000001134   -0.000000222    0.000000505
     22        1           0.000000280   -0.000000148    0.000001183
 -------------------------------------------------------------------
 Cartesian Forces:  Max     0.000005624 RMS     0.000001694
 Z-matrix is all fixed cartesians, so copy forces.
 Leave Link  716 at Fri Jun 18 20:09:54 2021, MaxMem=  8053063680 cpu:               2.2 elap:               0.1
 (Enter /public/software/g16-c01AVX2/g16/l123.exe)
 IRC-IRC-IRC-IRC-IRC-IRC-IRC-IRC-IRC-IRC-IRC-IRC-IRC-IRC-IRC-IRC-IRC-IRC
          ******** Start new reaction path calculation ********
 Current Structure is TS -> form Hessian eigenvectors.
                            Diagonalizing Hessian.
 Supplied step size of   0.0300 bohr.
    Integration on MW PES will use step size of   0.0908 sqrt(amu)*bohr.
 Point Number:   0          Path Number:   1
 Calculating another point on the path.
 Point Number  1 in REVERSE path direction.
 Using LQA Reaction Path Following.
 IRC-IRC-IRC-IRC-IRC-IRC-IRC-IRC-IRC-IRC-IRC-IRC-IRC-IRC-IRC-IRC-IRC-IRC
 Leave Link  123 at Fri Jun 18 20:09:56 2021, MaxMem=  8053063680 cpu:              40.0 elap:               1.9
 (Enter /public/software/g16-c01AVX2/g16/l202.exe)
                          Input orientation:                          
 ---------------------------------------------------------------------
 Center     Atomic      Atomic             Coordinates (Angstroms)
 Number     Number       Type             X           Y           Z
 ---------------------------------------------------------------------
      1          6           0        1.886944   -0.812303    0.491638
      2          1           0        1.708090   -1.278744    1.465320
      3          1           0        2.842422   -1.212957    0.111296
      4          6           0        0.756742    0.100667   -1.362972
      5          1           0        0.302028    0.176871   -2.342634
      6          6           0        0.800741   -1.065180   -0.551334
      7          1           0        0.709443   -2.053403   -0.998808
      8          6           0        1.400385    1.160101   -0.666574
      9          1           0        1.402091    2.197025   -0.988800
     10          6           0        1.940993    0.691874    0.502051
     11          1           0        2.480339    1.277091    1.238503
     12          6           0       -0.756768    0.100469    1.363004
     13          6           0       -0.800800   -1.065265    0.551215
     14          6           0       -1.940954    0.691988   -0.501962
     15          1           0       -0.302170    0.176495    2.342732
     16          1           0       -0.709559   -2.053553    0.998559
     17          1           0       -2.480221    1.277337   -1.238367
     18          6           0       -1.400330    1.160032    0.666722
     19          1           0       -1.401976    2.196916    0.989079
     20          6           0       -1.886952   -0.812192   -0.491771
     21          1           0       -1.708048   -1.278472   -1.465521
     22          1           0       -2.842460   -1.212891   -0.111553
 ---------------------------------------------------------------------
                    Distance matrix (angstroms):
                    1          2          3          4          5
     1  C    0.000000
     2  H    1.094355   0.000000
     3  H    1.103686   1.767602   0.000000
     4  C    2.355939   3.287412   2.872131   0.000000
     5  H    3.394630   4.312347   3.795655   1.082732   0.000000
     6  C    1.526948   2.221662   2.151598   1.421229   2.236104
     7  H    2.268979   2.769353   2.547210   2.185148   2.635523
     8  C    2.338498   3.253862   2.883740   1.421847   2.232108
     9  H    3.388633   4.265831   3.861702   2.225129   2.669087
    10  C    1.505184   2.205781   2.143279   2.286983   3.323201
    11  H    2.296844   2.679572   2.757179   3.335031   4.333596
    12  C    2.929444   2.826344   4.030636   3.117958   3.854690
    13  C    2.700279   2.678748   3.672657   2.729368   3.336689
    14  C    4.231186   4.590153   5.185131   2.892847   2.946928
    15  H    3.032572   2.632246   4.098578   3.854775   4.724162
    16  H    2.922241   2.581321   3.756382   3.516750   4.142665
    17  H    5.141171   5.602270   6.029402   3.446449   3.189254
    18  C    3.837568   4.030839   4.892905   3.145611   3.594558
    19  H    4.485515   4.688233   5.514767   3.819224   4.252590
    20  C    3.899920   4.119733   4.784483   2.929406   3.032420
    21  H    4.119678   4.501091   4.816370   2.826257   2.632063
    22  H    4.784514   4.816469   5.689248   4.030601   4.098411
                    6          7          8          9         10
     6  C    0.000000
     7  H    1.088648   0.000000
     8  C    2.307537   3.303693   0.000000
     9  H    3.345890   4.306507   1.085838   0.000000
    10  C    2.344575   3.362416   1.370102   2.185986   0.000000
    11  H    3.392756   4.385638   2.193013   2.640033   1.084312
    12  C    2.729334   3.516688   3.145682   3.819320   2.892908
    13  C    1.944363   2.379038   3.358643   4.226927   3.256898
    14  C    3.256834   3.848199   3.377984   3.698391   4.009683
    15  H    3.336733   4.142668   3.594732   4.252782   2.947118
    16  H    2.379087   2.450111   4.189523   5.145491   3.848287
    17  H    4.089513   4.617919   3.924258   3.997557   4.787375
    18  C    3.358562   4.189427   3.101884   3.416090   3.377977
    19  H    4.226832   5.145386   3.416051   3.431443   3.698350
    20  C    2.700231   2.922150   3.837588   4.485558   4.231201
    21  H    2.678667   2.581202   4.030795   4.688210   4.590109
    22  H    3.672621   3.756288   4.892942   5.514827   5.185178
                   11         12         13         14         15
    11  H    0.000000
    12  C    3.446563   0.000000
    13  C    4.089605   1.421223   0.000000
    14  C    4.787420   2.286983   2.344584   0.000000
    15  H    3.189512   1.082731   2.236098   3.323196   0.000000
    16  H    4.618030   2.185145   1.088648   3.362424   2.635504
    17  H    5.544551   3.335033   3.392763   1.084313   4.333593
    18  C    3.924312   1.421849   2.307536   1.370096   2.232109
    19  H    3.997582   2.225130   3.345887   2.185980   2.669092
    20  C    5.141223   2.355941   1.526955   1.505183   3.394620
    21  H    5.602252   3.287395   2.221661   2.205766   4.312332
    22  H    6.029498   2.872168   2.151611   2.143292   3.795653
                   16         17         18         19         20
    16  H    0.000000
    17  H    4.385648   0.000000
    18  C    3.303696   2.193009   0.000000
    19  H    4.306509   2.640029   1.085839   0.000000
    20  C    2.268990   2.296847   2.338498   3.388635   0.000000
    21  H    2.769372   2.679554   3.253836   4.265801   1.094355
    22  H    2.547220   2.757202   2.883785   3.861757   1.103686
                   21         22
    21  H    0.000000
    22  H    1.767603   0.000000
 Symmetry turned off by external request.
 Stoichiometry    C10H12
 Framework group  C1[X(C10H12)]
 Deg. of freedom    60
 Full point group                 C1      NOp   1
 Rotational constants (GHZ):           2.3878485           1.3002427           1.2419908
 Leave Link  202 at Fri Jun 18 20:09:57 2021, MaxMem=  8053063680 cpu:               5.1 elap:               0.3
 (Enter /public/software/g16-c01AVX2/g16/l301.exe)
 Standard basis: 6-31G(d) (6D, 7F)
 Ernie: Thresh=  0.10000D-02 Tol=  0.10000D-05 Strict=F.
   174 basis functions,   328 primitive gaussians,   174 cartesian basis functions
    36 alpha electrons       36 beta electrons
       nuclear repulsion energy       518.9320071704 Hartrees.
 IExCor=  402 DFT=T Ex+Corr=B3LYP ExCW=0 ScaHFX=  0.200000
 ScaDFX=  0.800000  0.720000  1.000000  0.810000 ScalE2=  1.000000  1.000000
 IRadAn=      4 IRanWt=     -1 IRanGd=            0 ICorTp=0 IEmpDi=  4
 NAtoms=   22 NActive=   22 NUniq=   22 SFac= 1.00D+00 NAtFMM=   60 NAOKFM=F Big=F
 Integral buffers will be    131072 words long.
 Raffenetti 2 integral format.
 Two-electron integral symmetry is turned off.
 Leave Link  301 at Fri Jun 18 20:09:57 2021, MaxMem=  8053063680 cpu:               1.9 elap:               0.1
 (Enter /public/software/g16-c01AVX2/g16/l302.exe)
 NPDir=0 NMtPBC=     1 NCelOv=     1 NCel=       1 NClECP=     1 NCelD=      1
         NCelK=      1 NCelE2=     1 NClLst=     1 CellRange=     0.0.
 One-electron integrals computed using PRISM.
 NBasis=   174 RedAO= T EigKep=  1.29D-03  NBF=   174
 NBsUse=   174 1.00D-06 EigRej= -1.00D+00 NBFU=   174
 Precomputing XC quadrature grid using
 IXCGrd= 4 IRadAn=           4 IRanWt=          -1 IRanGd=           0 AccXCQ= 1.00D-10.
 Generated NRdTot=       0 NPtTot=           0 NUsed=           0 NTot=          32
 NSgBfM=   174   174   174   174   174 MxSgAt=    22 MxSgA2=    22.
 Leave Link  302 at Fri Jun 18 20:09:58 2021, MaxMem=  8053063680 cpu:              33.7 elap:               1.5
 (Enter /public/software/g16-c01AVX2/g16/l303.exe)
 DipDrv:  MaxL=1.
 Leave Link  303 at Fri Jun 18 20:09:59 2021, MaxMem=  8053063680 cpu:               7.0 elap:               0.3
 (Enter /public/software/g16-c01AVX2/g16/l401.exe)
 Initial guess from the checkpoint file:  "/public/home/QZX_HG/tmp/Gau-54430.chk"
 B after Tr=    -0.000000   -0.023284   -0.000002
         Rot=    1.000000   -0.000000   -0.000016   -0.000000 Ang=  -0.00 deg.
 Guess basis will be translated and rotated to current coordinates.
 JPrj=2 DoOrth=T DoCkMO=T.
 Generating alternative initial guess.
 ExpMin= 1.61D-01 ExpMax= 3.05D+03 ExpMxC= 4.57D+02 IAcc=2 IRadAn=         4 AccDes= 0.00D+00
 Harris functional with IExCor=  402 and IRadAn=      -1 diagonalized for initial guess.
 HarFok:  IExCor=  402 AccDes= 0.00D+00 IRadAn=        -1 IDoV= 1 UseB2=F ITyADJ=14
 ICtDFT=  3500011 ScaDFX=  1.000000  1.000000  1.000000  1.000000
 FoFCou: FMM=F IPFlag=           0 FMFlag=      100000 FMFlg1=           0
         NFxFlg=           0 DoJE=T BraDBF=F KetDBF=T FulRan=T
         wScrn=  0.000000 ICntrl=       500 IOpCl=  0 I1Cent=   200000004 NGrid=           0
         NMat0=    1 NMatS0=      1 NMatT0=    0 NMatD0=    1 NMtDS0=    0 NMtDT0=    0
 Symmetry not used in FoFCou.
 Harris En= -388.217092489001    
 Leave Link  401 at Fri Jun 18 20:10:00 2021, MaxMem=  8053063680 cpu:              22.2 elap:               1.0
 (Enter /public/software/g16-c01AVX2/g16/l502.exe)
 Two-electron integral symmetry not used.
 Closed shell SCF:
 Using DIIS extrapolation, IDIIS=  1040.
 NGot=  8053063680 LenX=  8052995336 LenY=  8052964619
 Requested convergence on RMS density matrix=1.00D-08 within 128 cycles.
 Requested convergence on MAX density matrix=1.00D-06.
 Requested convergence on             energy=1.00D-06.
 No special actions if energy rises.
 Fock matrices will be formed incrementally for  20 cycles.
 Integral accuracy reduced to 1.0D-05 until final iterations.

 Cycle   1  Pass 0  IDiag  1:
 FoFJK:  IHMeth= 1 ICntrl=       0 DoSepK=F KAlg= 0 I1Cent=           0 FoldK=F
 IRaf= 970000000 NMat=       1 IRICut=       1 DoRegI=T DoRafI=F ISym2E= 0 IDoP0=0 IntGTp=1.
 FoFCou: FMM=F IPFlag=           0 FMFlag=      100000 FMFlg1=           0
         NFxFlg=           0 DoJE=F BraDBF=F KetDBF=F FulRan=T
         wScrn=  0.000000 ICntrl=         0 IOpCl=  0 I1Cent=           0 NGrid=           0
         NMat0=    1 NMatS0=      1 NMatT0=    0 NMatD0=    1 NMtDS0=    0 NMtDT0=    0
 Symmetry not used in FoFCou.
 E= -388.170849993765    
 DIIS: error= 5.48D-04 at cycle   1 NSaved=   1.
 NSaved= 1 IEnMin= 1 EnMin= -388.170849993765     IErMin= 1 ErrMin= 5.48D-04
 ErrMax= 5.48D-04  0.00D+00 EMaxC= 1.00D-01 BMatC= 4.34D-05 BMatP= 4.34D-05
 IDIUse=3 WtCom= 9.95D-01 WtEn= 5.48D-03
 Coeff-Com:  0.100D+01
 Coeff-En:   0.100D+01
 Coeff:      0.100D+01
 Gap=     1.651 Goal=   None    Shift=    0.000
 RMSDP=9.39D-05 MaxDP=1.59D-03              OVMax= 7.52D-03

 Cycle   2  Pass 0  IDiag  1:
 RMSU=  9.39D-05    CP:  1.00D+00
 E= -388.170977957010     Delta-E=       -0.000127963245 Rises=F Damp=F
 DIIS: error= 1.32D-04 at cycle   2 NSaved=   2.
 NSaved= 2 IEnMin= 2 EnMin= -388.170977957010     IErMin= 2 ErrMin= 1.32D-04
 ErrMax= 1.32D-04  0.00D+00 EMaxC= 1.00D-01 BMatC= 2.87D-06 BMatP= 4.34D-05
 IDIUse=3 WtCom= 9.99D-01 WtEn= 1.32D-03
 Coeff-Com: -0.815D-02 0.101D+01
 Coeff-En:   0.000D+00 0.100D+01
 Coeff:     -0.814D-02 0.101D+01
 Gap=     0.137 Goal=   None    Shift=    0.000
 RMSDP=2.99D-05 MaxDP=4.05D-04 DE=-1.28D-04 OVMax= 2.13D-03

 Cycle   3  Pass 0  IDiag  1:
 RMSU=  2.82D-05    CP:  1.00D+00  1.11D+00
 E= -388.170979425570     Delta-E=       -0.000001468560 Rises=F Damp=F
 DIIS: error= 1.62D-04 at cycle   3 NSaved=   3.
 NSaved= 3 IEnMin= 3 EnMin= -388.170979425570     IErMin= 2 ErrMin= 1.32D-04
 ErrMax= 1.62D-04  0.00D+00 EMaxC= 1.00D-01 BMatC= 3.81D-06 BMatP= 2.87D-06
 IDIUse=3 WtCom= 4.40D-01 WtEn= 5.60D-01
 Coeff-Com: -0.520D-01 0.576D+00 0.476D+00
 Coeff-En:   0.000D+00 0.375D+00 0.625D+00
 Coeff:     -0.229D-01 0.463D+00 0.559D+00
 Gap=     0.137 Goal=   None    Shift=    0.000
 RMSDP=1.79D-05 MaxDP=3.37D-04 DE=-1.47D-06 OVMax= 1.18D-03

 Cycle   4  Pass 0  IDiag  1:
 RMSU=  9.06D-06    CP:  1.00D+00  1.15D+00  4.71D-01
 E= -388.170982791820     Delta-E=       -0.000003366250 Rises=F Damp=F
 DIIS: error= 5.47D-05 at cycle   4 NSaved=   4.
 NSaved= 4 IEnMin= 4 EnMin= -388.170982791820     IErMin= 4 ErrMin= 5.47D-05
 ErrMax= 5.47D-05  0.00D+00 EMaxC= 1.00D-01 BMatC= 7.96D-07 BMatP= 2.87D-06
 IDIUse=1 WtCom= 1.00D+00 WtEn= 0.00D+00
 Coeff-Com: -0.196D-01 0.141D+00 0.337D+00 0.541D+00
 Coeff:     -0.196D-01 0.141D+00 0.337D+00 0.541D+00
 Gap=     0.137 Goal=   None    Shift=    0.000
 RMSDP=6.91D-06 MaxDP=1.57D-04 DE=-3.37D-06 OVMax= 4.45D-04

 Initial convergence to 1.0D-05 achieved.  Increase integral accuracy.
 Cycle   5  Pass 1  IDiag  1:
 E= -388.171262996437     Delta-E=       -0.000280204617 Rises=F Damp=F
 DIIS: error= 4.97D-05 at cycle   1 NSaved=   1.
 NSaved= 1 IEnMin= 1 EnMin= -388.171262996437     IErMin= 1 ErrMin= 4.97D-05
 ErrMax= 4.97D-05  0.00D+00 EMaxC= 1.00D-01 BMatC= 6.73D-07 BMatP= 6.73D-07
 IDIUse=1 WtCom= 1.00D+00 WtEn= 0.00D+00
 Coeff-Com:  0.100D+01
 Coeff:      0.100D+01
 Gap=     0.137 Goal=   None    Shift=    0.000
 RMSDP=6.91D-06 MaxDP=1.57D-04 DE=-2.80D-04 OVMax= 3.82D-04

 Cycle   6  Pass 1  IDiag  1:
 RMSU=  2.41D-05    CP:  1.00D+00
 E= -388.171263870220     Delta-E=       -0.000000873783 Rises=F Damp=F
 DIIS: error= 2.37D-05 at cycle   2 NSaved=   2.
 NSaved= 2 IEnMin= 2 EnMin= -388.171263870220     IErMin= 2 ErrMin= 2.37D-05
 ErrMax= 2.37D-05  0.00D+00 EMaxC= 1.00D-01 BMatC= 1.12D-07 BMatP= 6.73D-07
 IDIUse=1 WtCom= 1.00D+00 WtEn= 0.00D+00
 Coeff-Com:  0.173D+00 0.827D+00
 Coeff:      0.173D+00 0.827D+00
 Gap=     0.137 Goal=   None    Shift=    0.000
 RMSDP=5.69D-06 MaxDP=1.07D-04 DE=-8.74D-07 OVMax= 2.30D-04

 Cycle   7  Pass 1  IDiag  1:
 RMSU=  5.59D-06    CP:  1.00D+00  9.56D-01
 E= -388.171263815081     Delta-E=        0.000000055139 Rises=F Damp=F
 DIIS: error= 2.44D-05 at cycle   3 NSaved=   3.
 NSaved= 3 IEnMin= 2 EnMin= -388.171263870220     IErMin= 2 ErrMin= 2.37D-05
 ErrMax= 2.44D-05  0.00D+00 EMaxC= 1.00D-01 BMatC= 1.70D-07 BMatP= 1.12D-07
 IDIUse=1 WtCom= 1.00D+00 WtEn= 0.00D+00
 Coeff-Com: -0.212D-01 0.560D+00 0.461D+00
 Coeff:     -0.212D-01 0.560D+00 0.461D+00
 Gap=     0.137 Goal=   None    Shift=    0.000
 RMSDP=3.01D-06 MaxDP=5.42D-05 DE= 5.51D-08 OVMax= 1.60D-04

 Cycle   8  Pass 1  IDiag  1:
 RMSU=  9.72D-07    CP:  1.00D+00  9.98D-01  5.24D-01
 E= -388.171263993032     Delta-E=       -0.000000177952 Rises=F Damp=F
 DIIS: error= 3.32D-06 at cycle   4 NSaved=   4.
 NSaved= 4 IEnMin= 4 EnMin= -388.171263993032     IErMin= 4 ErrMin= 3.32D-06
 ErrMax= 3.32D-06  0.00D+00 EMaxC= 1.00D-01 BMatC= 3.00D-09 BMatP= 1.12D-07
 IDIUse=1 WtCom= 1.00D+00 WtEn= 0.00D+00
 Coeff-Com: -0.148D-01 0.276D+00 0.237D+00 0.501D+00
 Coeff:     -0.148D-01 0.276D+00 0.237D+00 0.501D+00
 Gap=     0.137 Goal=   None    Shift=    0.000
 RMSDP=4.90D-07 MaxDP=8.05D-06 DE=-1.78D-07 OVMax= 2.09D-05

 Cycle   9  Pass 1  IDiag  1:
 RMSU=  2.58D-07    CP:  1.00D+00  1.01D+00  5.36D-01  6.17D-01
 E= -388.171263995924     Delta-E=       -0.000000002891 Rises=F Damp=F
 DIIS: error= 1.08D-06 at cycle   5 NSaved=   5.
 NSaved= 5 IEnMin= 5 EnMin= -388.171263995924     IErMin= 5 ErrMin= 1.08D-06
 ErrMax= 1.08D-06  0.00D+00 EMaxC= 1.00D-01 BMatC= 2.13D-10 BMatP= 3.00D-09
 IDIUse=1 WtCom= 1.00D+00 WtEn= 0.00D+00
 Coeff-Com: -0.438D-02 0.600D-01 0.468D-01 0.226D+00 0.672D+00
 Coeff:     -0.438D-02 0.600D-01 0.468D-01 0.226D+00 0.672D+00
 Gap=     0.137 Goal=   None    Shift=    0.000
 RMSDP=1.10D-07 MaxDP=2.30D-06 DE=-2.89D-09 OVMax= 6.18D-06

 Cycle  10  Pass 1  IDiag  1:
 RMSU=  7.58D-08    CP:  1.00D+00  1.01D+00  5.29D-01  6.63D-01  8.19D-01
 E= -388.171263996138     Delta-E=       -0.000000000215 Rises=F Damp=F
 DIIS: error= 1.86D-07 at cycle   6 NSaved=   6.
 NSaved= 6 IEnMin= 6 EnMin= -388.171263996138     IErMin= 6 ErrMin= 1.86D-07
 ErrMax= 1.86D-07  0.00D+00 EMaxC= 1.00D-01 BMatC= 1.22D-11 BMatP= 2.13D-10
 IDIUse=1 WtCom= 1.00D+00 WtEn= 0.00D+00
 Coeff-Com: -0.646D-03 0.333D-02-0.760D-03 0.466D-01 0.257D+00 0.694D+00
 Coeff:     -0.646D-03 0.333D-02-0.760D-03 0.466D-01 0.257D+00 0.694D+00
 Gap=     0.137 Goal=   None    Shift=    0.000
 RMSDP=2.72D-08 MaxDP=5.09D-07 DE=-2.15D-10 OVMax= 1.11D-06

 Cycle  11  Pass 1  IDiag  1:
 RMSU=  2.15D-08    CP:  1.00D+00  1.01D+00  5.29D-01  6.70D-01  8.61D-01
                    CP:  8.72D-01
 E= -388.171263996153     Delta-E=       -0.000000000015 Rises=F Damp=F
 DIIS: error= 6.84D-08 at cycle   7 NSaved=   7.
 NSaved= 7 IEnMin= 7 EnMin= -388.171263996153     IErMin= 7 ErrMin= 6.84D-08
 ErrMax= 6.84D-08  0.00D+00 EMaxC= 1.00D-01 BMatC= 9.38D-13 BMatP= 1.22D-11
 IDIUse=1 WtCom= 1.00D+00 WtEn= 0.00D+00
 Coeff-Com: -0.197D-04-0.230D-02-0.334D-02 0.402D-02 0.602D-01 0.287D+00
 Coeff-Com:  0.655D+00
 Coeff:     -0.197D-04-0.230D-02-0.334D-02 0.402D-02 0.602D-01 0.287D+00
 Coeff:      0.655D+00
 Gap=     0.137 Goal=   None    Shift=    0.000
 RMSDP=9.39D-09 MaxDP=1.25D-07 DE=-1.50D-11 OVMax= 4.10D-07

 SCF Done:  E(RB3LYP) =  -388.171263996     A.U. after   11 cycles
            NFock= 11  Conv=0.94D-08     -V/T= 2.0099
 KE= 3.843509116743D+02 PE=-1.936268359197D+03 EE= 6.448141763563D+02
 Leave Link  502 at Fri Jun 18 20:10:05 2021, MaxMem=  8053063680 cpu:             135.8 elap:               5.1
 (Enter /public/software/g16-c01AVX2/g16/l801.exe)
 DoSCS=F DFT=T ScalE2(SS,OS)=  1.000000  1.000000
 Range of M.O.s used for correlation:     1   174
 NBasis=   174 NAE=    36 NBE=    36 NFC=     0 NFV=     0
 NROrb=    174 NOA=    36 NOB=    36 NVA=   138 NVB=   138
 Leave Link  801 at Fri Jun 18 20:10:05 2021, MaxMem=  8053063680 cpu:               2.0 elap:               0.1
 (Enter /public/software/g16-c01AVX2/g16/l1101.exe)
 Leave Link 1101 at Fri Jun 18 20:10:05 2021, MaxMem=  8053063680 cpu:               1.9 elap:               0.2
 (Enter /public/software/g16-c01AVX2/g16/l1102.exe)
 Symmetrizing basis deriv contribution to polar:
 IMax=3 JMax=2 DiffMx= 0.00D+00
 Leave Link 1102 at Fri Jun 18 20:10:06 2021, MaxMem=  8053063680 cpu:               6.1 elap:               0.4
 (Enter /public/software/g16-c01AVX2/g16/l1110.exe)
 Leave Link 1110 at Fri Jun 18 20:10:06 2021, MaxMem=  8053063680 cpu:               1.5 elap:               0.1
 (Enter /public/software/g16-c01AVX2/g16/l1002.exe)
 Minotr:  Closed shell wavefunction.
 Leave Link 1002 at Fri Jun 18 20:10:06 2021, MaxMem=  8053063680 cpu:               2.9 elap:               0.2
 (Enter /public/software/g16-c01AVX2/g16/l701.exe)
 ... and contract with generalized density number  0.
 Compute integral first derivatives.
 Leave Link  701 at Fri Jun 18 20:10:07 2021, MaxMem=  8053063680 cpu:              18.2 elap:               1.0
 (Enter /public/software/g16-c01AVX2/g16/l702.exe)
 L702 exits ... SP integral derivatives will be done elsewhere.
 Leave Link  702 at Fri Jun 18 20:10:07 2021, MaxMem=  8053063680 cpu:               0.6 elap:               0.0
 (Enter /public/software/g16-c01AVX2/g16/l703.exe)
 Integral derivatives from FoFJK, PRISM(SPDF).
 Compute integral first derivatives, UseDBF=F ICtDFT=           0.
 Calling FoFJK, ICntrl=      2127 FMM=F ISym2X=0 I1Cent= 0 IOpClX= 0 NMat=1 NMatS=1 NMatT=0.
 FoFJK:  IHMeth= 1 ICntrl=    2127 DoSepK=F KAlg= 0 I1Cent=           0 FoldK=F
 IRaf=         0 NMat=       1 IRICut=       1 DoRegI=T DoRafI=F ISym2E= 0 IDoP0=0 IntGTp=1.
 FoFCou: FMM=F IPFlag=           0 FMFlag=      100000 FMFlg1=         800
         NFxFlg=           0 DoJE=F BraDBF=F KetDBF=F FulRan=T
         wScrn=  0.000000 ICntrl=      2127 IOpCl=  0 I1Cent=           0 NGrid=           0
         NMat0=    1 NMatS0=      1 NMatT0=    0 NMatD0=    1 NMtDS0=    0 NMtDT0=    0
 Symmetry not used in FoFCou.
 Leave Link  703 at Fri Jun 18 20:10:08 2021, MaxMem=  8053063680 cpu:              25.2 elap:               1.3
 (Enter /public/software/g16-c01AVX2/g16/l716.exe)
 Dipole        =-3.00852148D-05-1.59994176D-01-8.58925304D-06
 Polarizability= 0.00000000D+00 0.00000000D+00 0.00000000D+00
                 0.00000000D+00 0.00000000D+00 0.00000000D+00
 -------------------------------------------------------------------
 Center     Atomic                   Forces (Hartrees/Bohr)
 Number     Number              X              Y              Z
 -------------------------------------------------------------------
      1        6          -0.000105801   -0.000035579    0.000066828
      2        1           0.000021838   -0.000001984    0.000008714
      3        1          -0.000029117   -0.000003482   -0.000029879
      4        6          -0.000266033    0.000146799    0.000096317
      5        1           0.000003462   -0.000005394   -0.000002170
      6        6          -0.000853254   -0.000020364    0.000657047
      7        1           0.000000196    0.000028144    0.000016524
      8        6          -0.000058942   -0.000065741   -0.000108733
      9        1           0.000018210   -0.000009616   -0.000018468
     10        6          -0.000227798   -0.000037039    0.000089694
     11        1          -0.000014062    0.000000679    0.000000825
     12        6           0.000261544    0.000149381   -0.000092746
     13        6           0.000853006   -0.000014232   -0.000663401
     14        6           0.000230899   -0.000038353   -0.000094328
     15        1           0.000000690   -0.000004161    0.000001060
     16        1           0.000001205    0.000028274   -0.000017911
     17        1           0.000013346    0.000000069   -0.000000075
     18        6           0.000057792   -0.000064039    0.000115548
     19        1          -0.000018585   -0.000010123    0.000018635
     20        6           0.000105197   -0.000037026   -0.000064668
     21        1          -0.000023082   -0.000003393   -0.000008947
     22        1           0.000029288   -0.000002822    0.000030133
 -------------------------------------------------------------------
 Cartesian Forces:  Max     0.000853254 RMS     0.000203636
 Z-matrix is all fixed cartesians, so copy forces.
 Leave Link  716 at Fri Jun 18 20:10:09 2021, MaxMem=  8053063680 cpu:               0.8 elap:               0.1
 (Enter /public/software/g16-c01AVX2/g16/l123.exe)
 IRC-IRC-IRC-IRC-IRC-IRC-IRC-IRC-IRC-IRC-IRC-IRC-IRC-IRC-IRC-IRC-IRC-IRC
 Pt  1 Step number   1 out of a maximum of  20
 Using modified Bulirsch-Stoer corrector integration.
   Using distance weighted interpolants to fit PES.
 PreDWI: IReCr0= 2 IReCr1= 1 IReCr2= 1 IReCr3= 1
 Modified Bulirsch-Stoer Extrapolation Cycles:
    EPS =    0.000010000000000
    Cycle     1 NS=    48
      PEZero:  N= 2 I= 1 D=  2.36D-04 Err=  3.63D-04
    Cycle     2 NS=    64 Truncation Error =  0.000363356
      PEZero:  N= 3 I= 2 D=  2.36D-04 Err=  2.42D-04
      PEZero:  N= 3 I= 1 D=  4.73D-04 Err=  1.87D-07
    Cycle     3 NS=    96 Truncation Error =  0.000000187
 BS completed in    3 cycles and     208 integration steps.
 Maximum DWI energy   std dev =  0.000000020 at pt     1
 Maximum DWI gradient std dev =  0.038206401 at pt     1
 SUMMARY OF CORRECTOR INTEGRATION:
   Predictor End Point Energy =  -388.171264
   Old End Point Energy       =  -388.171264
   Corrected End Point Energy =  -388.171264
   Predictor End-Start Dist.  =     0.090784
   Old End-Start Dist.        =     0.090784
   New End-Start Dist.        =     0.090782
   New End-Old End Dist.      =     0.000432
 CORRECTOR INTEGRATION CONVERGENCE:
   Recorrection delta-x convergence threshold:    0.010000
   Delta-x Convergence Met
 Point Number:   1          Path Number:   1
                    CURRENT STRUCTURE
                Cartesian Coordinates (Ang):                
 ---------------------------------------------------------------------
 Center     Atomic                     Coordinates (Angstroms)
 Number     Number                        X           Y           Z
 ---------------------------------------------------------------------
      1          6                    1.886940   -0.812305    0.491624
      2          1                    1.708072   -1.278734    1.465305
      3          1                    2.842412   -1.212975    0.111304
      4          6                    0.756716    0.100676   -1.362973
      5          1                    0.302017    0.176866   -2.342639
      6          6                    0.800748   -1.065194   -0.551346
      7          1                    0.709449   -2.053387   -0.998819
      8          6                    1.400373    1.160103   -0.666576
      9          1                    1.402097    2.197021   -0.988817
     10          6                    1.940993    0.691872    0.502040
     11          1                    2.480340    1.277090    1.238489
     12          6                   -0.756747    0.100482    1.363009
     13          6                   -0.800803   -1.065270    0.551217
     14          6                   -1.940944    0.691986   -0.501958
     15          1                   -0.302078    0.176515    2.342700
     16          1                   -0.709539   -2.053531    0.998546
     17          1                   -2.480239    1.277331   -1.238344
     18          6                   -1.400325    1.160035    0.666734
     19          1                   -1.402000    2.196911    0.989108
     20          6                   -1.886952   -0.812195   -0.491753
     21          1                   -1.708060   -1.278485   -1.465497
     22          1                   -2.842453   -1.212890   -0.111533
 ---------------------------------------------------------------------
   CHANGE IN THE REACTION COORDINATE =    0.09078
   NET REACTION COORDINATE UP TO THIS POINT =    0.09078
  # OF POINTS ALONG THE PATH =   1
  # OF STEPS =   1

 Calculating another point on the path.
 Point Number  2 in REVERSE path direction.
 Using LQA Reaction Path Following.
   LQA: T_Est iteration completed in    3 iterations.
 IRC-IRC-IRC-IRC-IRC-IRC-IRC-IRC-IRC-IRC-IRC-IRC-IRC-IRC-IRC-IRC-IRC-IRC
 Leave Link  123 at Fri Jun 18 20:10:11 2021, MaxMem=  8053063680 cpu:              52.3 elap:               2.5
 (Enter /public/software/g16-c01AVX2/g16/l202.exe)
                          Input orientation:                          
 ---------------------------------------------------------------------
 Center     Atomic      Atomic             Coordinates (Angstroms)
 Number     Number       Type             X           Y           Z
 ---------------------------------------------------------------------
      1          6           0        1.886057   -0.812593    0.492196
      2          1           0        1.710230   -1.279112    1.466448
      3          1           0        2.839979   -1.213305    0.108191
      4          6           0        0.754573    0.101801   -1.362137
      5          1           0        0.302250    0.176470   -2.342988
      6          6           0        0.793666   -1.065110   -0.545892
      7          1           0        0.709322   -2.052290   -0.997859
      8          6           0        1.399899    1.159548   -0.667501
      9          1           0        1.403796    2.196242   -0.990536
     10          6           0        1.939106    0.691562    0.502784
     11          1           0        2.479000    1.277114    1.238591
     12          6           0       -0.754604    0.101611    1.362171
     13          6           0       -0.793715   -1.065181    0.545757
     14          6           0       -1.939050    0.691677   -0.502706
     15          1           0       -0.302284    0.176129    2.343035
[...]
 (Enter /public/software/g16-c01AVX2/g16/l202.exe)
                          Input orientation:                          
 ---------------------------------------------------------------------
 Center     Atomic      Atomic             Coordinates (Angstroms)
 Number     Number       Type             X           Y           Z
 ---------------------------------------------------------------------
      1          6           0        1.842390   -0.813817    0.498034
      2          1           0        1.727216   -1.308804    1.468689
      3          1           0        2.788587   -1.164998    0.055796
      4          6           0        0.657743    0.124887   -1.343158
      5          1           0        0.284636    0.152934   -2.358824
      6          6           0        0.671260   -1.078010   -0.467731
      7          1           0        0.697250   -2.036927   -0.993053
      8          6           0        1.334889    1.151320   -0.678834
      9          1           0        1.373431    2.183809   -1.013908
     10          6           0        1.808457    0.691056    0.539475
     11          1           0        2.331336    1.289695    1.278001
     12          6           0       -0.659167    0.124143    1.343793
     13          6           0       -0.671769   -1.078459    0.467989
     14          6           0       -1.806766    0.690915   -0.540333
     15          1           0       -0.284971    0.152507    2.359054
     16          1           0       -0.697708   -2.037612    0.992886
     17          1           0       -2.329053    1.289809   -1.279075
     18          6           0       -1.334738    1.150873    0.679083
     19          1           0       -1.373258    2.183325    1.014261
     20          6           0       -1.842394   -0.813898   -0.498252
     21          1           0       -1.727373   -1.309443   -1.468637
     22          1           0       -2.788981   -1.163974   -0.055970
 ---------------------------------------------------------------------
                    Distance matrix (angstroms):
                    1          2          3          4          5
     1  C    0.000000
     2  H    1.095650   0.000000
     3  H    1.101903   1.772979   0.000000
     4  C    2.382130   3.332526   2.856812   0.000000
     5  H    3.394532   4.343682   3.719826   1.082392   0.000000
     6  C    1.540794   2.217664   2.182824   1.487790   2.289309
     7  H    2.242919   2.766075   2.496805   2.190337   2.613632
     8  C    2.346133   3.289071   2.831651   1.397648   2.218598
     9  H    3.389934   4.299628   3.789649   2.204489   2.668094
    10  C    1.505826   2.206690   2.153958   2.277937   3.318395
    11  H    2.296123   2.674607   2.779997   3.320869   4.325241
    12  C    2.802296   2.786352   3.899721   2.992317   3.821121
    13  C    2.528228   2.609519   3.485894   2.548706   3.228299
    14  C    4.081515   4.530350   4.991698   2.653058   2.823171
    15  H    2.987113   2.641416   4.060490   3.820451   4.752139
    16  H    2.862630   2.576394   3.714006   3.459878   4.122797
    17  H    4.998429   5.545837   5.830797   3.206571   3.047903
    18  C    3.739911   4.006127   4.770069   3.018624   3.584290
    19  H    4.426030   4.691951   5.426866   3.730892   4.271862
    20  C    3.817095   4.105594   4.677202   2.801047   2.986762
    21  H    4.105685   4.534543   4.768507   2.786005   2.641810
    22  H    4.677513   4.768815   5.578687   3.898451   4.060111
                    6          7          8          9         10
     6  C    0.000000
     7  H    1.093691   0.000000
     8  C    2.335569   3.266533   0.000000
     9  H    3.380949   4.274607   1.086183   0.000000
    10  C    2.331796   3.320439   1.385779   2.197852   0.000000
    11  H    3.377789   4.346762   2.200286   2.640051   1.084985
    12  C    2.548887   3.459905   3.020327   3.732618   2.656593
    13  C    1.636857   2.219801   3.211510   4.125683   3.047592
    14  C    3.045485   3.730438   3.178231   3.544948   3.773038
    15  H    3.227888   4.122499   3.584737   4.272395   2.825482
    16  H    2.219980   2.426904   4.134657   5.112459   3.732569
    17  H    3.907265   4.506383   3.715366   3.818107   4.559015
    18  C    3.210472   4.133653   2.995138   3.356688   3.179717
    19  H    4.124640   5.111442   3.356436   3.414348   3.546209
    20  C    2.527675   2.861890   3.740297   4.426475   4.082949
    21  H    2.609371   2.575696   4.007068   4.693034   4.531733
    22  H    3.485714   3.714024   4.770204   5.426875   4.993208
                   11         12         13         14         15
    11  H    0.000000
    12  C    3.210288   0.000000
    13  C    3.909338   1.487765   0.000000
    14  C    4.559470   2.277751   2.331441   0.000000
    15  H    3.050728   1.082396   2.289327   3.318462   0.000000
    16  H    4.508589   2.190389   1.093692   3.320486   2.614075
    17  H    5.315813   3.320653   3.377501   1.084987   4.325240
    18  C    3.717268   1.397288   2.335383   1.386126   2.218344
    19  H    3.819967   2.204257   3.380789   2.198177   2.667781
    20  C    5.000020   2.381823   1.540771   1.505823   3.394658
    21  H    5.547311   3.332567   2.217696   2.206690   4.343851
    22  H    5.832463   2.855642   2.182757   2.154058   3.719614
                   16         17         18         19         20
    16  H    0.000000
    17  H    4.346817   0.000000
    18  C    3.266607   2.200533   0.000000
    19  H    4.274709   2.640323   1.086179   0.000000
    20  C    2.243050   2.296106   2.346094   3.389857   0.000000
    21  H    2.765780   2.674707   3.289380   4.299954   1.095647
    22  H    2.497351   2.780030   2.830838   3.788678   1.101905
                   21         22
    21  H    0.000000
    22  H    1.773076   0.000000
 Symmetry turned off by external request.
 Stoichiometry    C10H12
 Framework group  C1[X(C10H12)]
 Deg. of freedom    60
 Full point group                 C1      NOp   1
 Rotational constants (GHZ):           2.4008160           1.4157593           1.3424747
 Leave Link  202 at Fri Jun 18 20:18:55 2021, MaxMem=  8053063680 cpu:               4.7 elap:               0.2
 (Enter /public/software/g16-c01AVX2/g16/l601.exe)
 Copying SCF densities to generalized density rwf, IOpCl= 0 IROHF=0.

 **********************************************************************

            Population analysis using the SCF Density.

 **********************************************************************

 Alpha  occ. eigenvalues --  -10.18922 -10.18911 -10.17957 -10.17952 -10.17890
 Alpha  occ. eigenvalues --  -10.17890 -10.17697 -10.17689 -10.17223 -10.17221
 Alpha  occ. eigenvalues --   -0.86623  -0.82200  -0.72369  -0.70094  -0.67949
 Alpha  occ. eigenvalues --   -0.66338  -0.56386  -0.54250  -0.52549  -0.50723
 Alpha  occ. eigenvalues --   -0.50522  -0.48607  -0.45248  -0.41623  -0.38020
 Alpha  occ. eigenvalues --   -0.37331  -0.36737  -0.36093  -0.35718  -0.34750
 Alpha  occ. eigenvalues --   -0.33531  -0.32235  -0.31275  -0.28883  -0.23796
 Alpha  occ. eigenvalues --   -0.16842
 Alpha virt. eigenvalues --   -0.03023   0.03356   0.07568   0.09951   0.13111
 Alpha virt. eigenvalues --    0.13996   0.14650   0.15403   0.16084   0.16976
 Alpha virt. eigenvalues --    0.17999   0.18463   0.19416   0.19584   0.20606
 Alpha virt. eigenvalues --    0.22485   0.22869   0.23295   0.23564   0.26739
 Alpha virt. eigenvalues --    0.28826   0.32699   0.36815   0.37785   0.39178
 Alpha virt. eigenvalues --    0.41246   0.50456   0.51454   0.54294   0.55737
 Alpha virt. eigenvalues --    0.56807   0.57650   0.59356   0.59533   0.60495
 Alpha virt. eigenvalues --    0.61786   0.62460   0.63384   0.64490   0.67304
 Alpha virt. eigenvalues --    0.68037   0.70119   0.71028   0.73169   0.75951
 Alpha virt. eigenvalues --    0.76777   0.78972   0.80867   0.83526   0.84107
 Alpha virt. eigenvalues --    0.84281   0.84903   0.85364   0.85539   0.86839
 Alpha virt. eigenvalues --    0.87441   0.89245   0.90562   0.92717   0.93501
 Alpha virt. eigenvalues --    0.94009   0.95789   0.97909   0.98838   1.03207
 Alpha virt. eigenvalues --    1.07925   1.13279   1.18639   1.19220   1.24086
 Alpha virt. eigenvalues --    1.25303   1.29400   1.32027   1.38809   1.41512
 Alpha virt. eigenvalues --    1.44505   1.47009   1.50525   1.52490   1.53415
 Alpha virt. eigenvalues --    1.60791   1.65101   1.65770   1.70470   1.70556
 Alpha virt. eigenvalues --    1.74452   1.77272   1.83319   1.84192   1.86722
 Alpha virt. eigenvalues --    1.91750   1.94306   1.94360   2.00077   2.04918
 Alpha virt. eigenvalues --    2.04985   2.06871   2.08041   2.09587   2.13884
 Alpha virt. eigenvalues --    2.14204   2.17773   2.18291   2.23339   2.25286
 Alpha virt. eigenvalues --    2.28631   2.32100   2.32729   2.38223   2.41131
 Alpha virt. eigenvalues --    2.41793   2.47245   2.48097   2.49582   2.54893
 Alpha virt. eigenvalues --    2.61496   2.63735   2.64143   2.64830   2.66900
 Alpha virt. eigenvalues --    2.67232   2.68733   2.72429   2.77606   2.92780
 Alpha virt. eigenvalues --    2.93823   2.95701   2.97422   4.12150   4.21012
 Alpha virt. eigenvalues --    4.22354   4.38231   4.39305   4.46906   4.50780
 Alpha virt. eigenvalues --    4.65018   4.65172   4.78173
          Condensed to atoms (all electrons):
               1          2          3          4          5          6
     1  C    5.078541   0.360828   0.353506  -0.076328   0.005534   0.368969
     2  H    0.360828   0.608147  -0.039111   0.006556  -0.000133  -0.038538
     3  H    0.353506  -0.039111   0.607831   0.002060  -0.000035  -0.030561
     4  C   -0.076328   0.006556   0.002060   5.062542   0.362598   0.423260
     5  H    0.005534  -0.000133  -0.000035   0.362598   0.586302  -0.045456
     6  C    0.368969  -0.038538  -0.030561   0.423260  -0.045456   5.066563
     7  H   -0.037994   0.000154  -0.002111  -0.042912  -0.002758   0.362379
     8  C   -0.049574   0.004400  -0.004175   0.529565  -0.040294  -0.041559
     9  H    0.006927  -0.000141  -0.000107  -0.052893  -0.003186   0.006634
    10  C    0.374052  -0.032842  -0.040382  -0.057512   0.005847  -0.056114
    11  H   -0.047382  -0.000959   0.000597   0.007345  -0.000164   0.004653
    12  C   -0.012237  -0.002115   0.002383  -0.056900   0.000376  -0.046614
    13  C   -0.041632  -0.003068   0.005114  -0.046626   0.000411   0.270847
    14  C    0.000271   0.000027  -0.000098   0.079851  -0.001673  -0.018353
    15  H    0.000572   0.001016  -0.000006   0.000366  -0.000003   0.000393
    16  H   -0.004059   0.003176  -0.000131   0.005072  -0.000128  -0.034635
    17  H   -0.000006  -0.000000   0.000000  -0.003958   0.000085   0.000677
    18  C   -0.000691   0.000548  -0.000055   0.009679  -0.000433  -0.015282
    19  H   -0.000017   0.000004  -0.000001   0.000531  -0.000029  -0.000147
    20  C    0.005742   0.000326  -0.000152  -0.012279   0.000562  -0.041679
    21  H    0.000326  -0.000014  -0.000002  -0.002129   0.001018  -0.003052
    22  H   -0.000151  -0.000002  -0.000001   0.002396  -0.000007   0.005120
               7          8          9         10         11         12
     1  C   -0.037994  -0.049574   0.006927   0.374052  -0.047382  -0.012237
     2  H    0.000154   0.004400  -0.000141  -0.032842  -0.000959  -0.002115
     3  H   -0.002111  -0.004175  -0.000107  -0.040382   0.000597   0.002383
     4  C   -0.042912   0.529565  -0.052893  -0.057512   0.007345  -0.056900
     5  H   -0.002758  -0.040294  -0.003186   0.005847  -0.000164   0.000376
     6  C    0.362379  -0.041559   0.006634  -0.056114   0.004653  -0.046614
     7  H    0.621356   0.006919  -0.000115   0.004892  -0.000179   0.005064
     8  C    0.006919   4.799357   0.366350   0.561793  -0.041796   0.009638
     9  H   -0.000115   0.366350   0.613716  -0.054040  -0.003774   0.000527
    10  C    0.004892   0.561793  -0.054040   5.041728   0.362374   0.079180
    11  H   -0.000179  -0.041796  -0.003774   0.362374   0.601330  -0.003901
    12  C    0.005064   0.009638   0.000527   0.079180  -0.003901   5.062221
    13  C   -0.034633  -0.015229  -0.000147  -0.018246   0.000671   0.423285
    14  C   -0.000115  -0.010197  -0.000556  -0.005034   0.000043  -0.057542
    15  H   -0.000128  -0.000431  -0.000029  -0.001592   0.000084   0.362625
    16  H   -0.004816   0.000021   0.000009  -0.000118   0.000007  -0.042934
    17  H    0.000007   0.000241   0.000050   0.000043  -0.000000   0.007355
    18  C    0.000024  -0.015811   0.000328  -0.010125   0.000239   0.530259
    19  H    0.000009   0.000330   0.000033  -0.000555   0.000049  -0.052900
    20  C   -0.004072  -0.000689  -0.000017   0.000270  -0.000006  -0.076274
    21  H    0.003175   0.000547   0.000004   0.000027  -0.000000   0.006558
    22  H   -0.000130  -0.000055  -0.000001  -0.000098   0.000000   0.002042
              13         14         15         16         17         18
     1  C   -0.041632   0.000271   0.000572  -0.004059  -0.000006  -0.000691
     2  H   -0.003068   0.000027   0.001016   0.003176  -0.000000   0.000548
     3  H    0.005114  -0.000098  -0.000006  -0.000131   0.000000  -0.000055
     4  C   -0.046626   0.079851   0.000366   0.005072  -0.003958   0.009679
     5  H    0.000411  -0.001673  -0.000003  -0.000128   0.000085  -0.000433
     6  C    0.270847  -0.018353   0.000393  -0.034635   0.000677  -0.015282
     7  H   -0.034633  -0.000115  -0.000128  -0.004816   0.000007   0.000024
     8  C   -0.015229  -0.010197  -0.000431   0.000021   0.000241  -0.015811
     9  H   -0.000147  -0.000556  -0.000029   0.000009   0.000050   0.000328
    10  C   -0.018246  -0.005034  -0.001592  -0.000118   0.000043  -0.010125
    11  H    0.000671   0.000043   0.000084   0.000007  -0.000000   0.000239
    12  C    0.423285  -0.057542   0.362625  -0.042934   0.007355   0.530259
    13  C    5.066628  -0.056105  -0.045491   0.362351   0.004656  -0.041614
    14  C   -0.056105   5.042295   0.005863   0.004897   0.362386   0.560949
    15  H   -0.045491   0.005863   0.586357  -0.002756  -0.000164  -0.040346
    16  H    0.362351   0.004897  -0.002756   0.621416  -0.000180   0.006929
    17  H    0.004656   0.362386  -0.000164  -0.000180   0.601380  -0.041818
    18  C   -0.041614   0.560949  -0.040346   0.006929  -0.041818   4.799534
    19  H    0.006641  -0.054053  -0.003202  -0.000114  -0.003771   0.366365
    20  C    0.368901   0.374084   0.005533  -0.037983  -0.047360  -0.049609
    21  H   -0.038525  -0.032863  -0.000133   0.000143  -0.000963   0.004412
    22  H   -0.030568  -0.040405  -0.000038  -0.002098   0.000588  -0.004139
              19         20         21         22
     1  C   -0.000017   0.005742   0.000326  -0.000151
     2  H    0.000004   0.000326  -0.000014  -0.000002
     3  H   -0.000001  -0.000152  -0.000002  -0.000001
     4  C    0.000531  -0.012279  -0.002129   0.002396
     5  H   -0.000029   0.000562   0.001018  -0.000007
     6  C   -0.000147  -0.041679  -0.003052   0.005120
     7  H    0.000009  -0.004072   0.003175  -0.000130
     8  C    0.000330  -0.000689   0.000547  -0.000055
     9  H    0.000033  -0.000017   0.000004  -0.000001
    10  C   -0.000555   0.000270   0.000027  -0.000098
    11  H    0.000049  -0.000006  -0.000000   0.000000
    12  C   -0.052900  -0.076274   0.006558   0.002042
    13  C    0.006641   0.368901  -0.038525  -0.030568
    14  C   -0.054053   0.374084  -0.032863  -0.040405
    15  H   -0.003202   0.005533  -0.000133  -0.000038
    16  H   -0.000114  -0.037983   0.000143  -0.002098
    17  H   -0.003771  -0.047360  -0.000963   0.000588
    18  C    0.366365  -0.049609   0.004412  -0.004139
    19  H    0.613721   0.006922  -0.000141  -0.000106
    20  C    0.006922   5.078536   0.360834   0.353484
    21  H   -0.000141   0.360834   0.608161  -0.039092
    22  H   -0.000106   0.353484  -0.039092   0.607829
 Mulliken charges:
               1
     1  C   -0.285198
     2  H    0.131740
     3  H    0.145437
     4  C   -0.140282
     5  H    0.131566
     6  C   -0.137508
     7  H    0.125982
     8  C   -0.059352
     9  H    0.120427
    10  C   -0.153547
    11  H    0.120770
    12  C   -0.140094
    13  C   -0.137620
    14  C   -0.153671
    15  H    0.131510
    16  H    0.125929
    17  H    0.120753
    18  C   -0.059343
    19  H    0.120434
    20  C   -0.285075
    21  H    0.131711
    22  H    0.145431
 Sum of Mulliken charges =  -0.00000
 Mulliken charges with hydrogens summed into heavy atoms:
               1
     1  C   -0.008021
     4  C   -0.008716
     6  C   -0.011525
     8  C    0.061075
    10  C   -0.032777
    12  C   -0.008584
    13  C   -0.011691
    14  C   -0.032918
    18  C    0.061091
    20  C   -0.007933
 APT charges:
               1
     1  C   -0.899753
     2  H    0.392601
     3  H    0.523876
     4  C   -0.599697
     5  H    0.480404
     6  C   -0.502928
     7  H    0.468846
     8  C   -0.375392
     9  H    0.509551
    10  C   -0.545685
    11  H    0.548099
    12  C   -0.599030
    13  C   -0.503101
    14  C   -0.545988
    15  H    0.480243
    16  H    0.468841
    17  H    0.547930
    18  C   -0.375087
    19  H    0.509515
    20  C   -0.899719
    21  H    0.392672
    22  H    0.523801
 Sum of APT charges =  -0.00000
 APT charges with hydrogens summed into heavy atoms:
               1
     1  C    0.016724
     4  C   -0.119293
     6  C   -0.034082
     8  C    0.134159
    10  C    0.002413
    12  C   -0.118786
    13  C   -0.034260
    14  C    0.001943
    18  C    0.134428
    20  C    0.016755
 Electronic spatial extent (au):  <R**2>=           1128.8851
 Charge=             -0.0000 electrons
 Dipole moment (field-independent basis, Debye):
    X=              0.0008    Y=             -0.2509    Z=             -0.0009  Tot=              0.2509
 Quadrupole moment (field-independent basis, Debye-Ang):
   XX=            -61.3013   YY=            -57.0774   ZZ=            -58.3220
   XY=             -0.0015   XZ=              2.3125   YZ=              0.0004
 Traceless Quadrupole moment (field-independent basis, Debye-Ang):
   XX=             -2.4010   YY=              1.8228   ZZ=              0.5782
   XY=             -0.0015   XZ=              2.3125   YZ=              0.0004
 Octapole moment (field-independent basis, Debye-Ang**2):
  XXX=              0.0034  YYY=              6.1389  ZZZ=             -0.0036  XYY=              0.0000
  XXY=              0.6485  XXZ=              0.0012  XZZ=              0.0064  YZZ=              1.5536
  YYZ=             -0.0017  XYZ=              0.9332
 Hexadecapole moment (field-independent basis, Debye-Ang**3):
 XXXX=           -816.4042 YYYY=           -388.2451 ZZZZ=           -333.5862 XXXY=             -0.0647
 XXXZ=              7.8064 YYYX=             -0.0640 YYYZ=              0.0307 ZZZX=              1.6062
 ZZZY=              0.0306 XXYY=           -194.9760 XXZZ=           -195.2194 YYZZ=           -120.5741
 XXYZ=              0.0204 YYXZ=             -3.4638 ZZXY=             -0.0238
 N-N= 5.285146037408D+02 E-N=-1.955404601433D+03  KE= 3.843779733708D+02
  Exact polarizability:       0.000       0.000       0.000       0.000       0.000       0.000
 Approx polarizability:     262.371      -0.057     148.754      -0.683      -0.064     185.583
 No NMR shielding tensors so no spin-rotation constants.
 Leave Link  601 at Fri Jun 18 20:18:57 2021, MaxMem=  8053063680 cpu:              42.3 elap:               2.3
 (Enter /public/software/g16-c01AVX2/g16/l9999.exe)

 This type of calculation cannot be archived.


 IF YOU GIVE A BOY AND A PIG EVERYTHING THEY WANT,
 YOU'LL GET A BAD BOY AND A GOOD PIG.
 Job cpu time:       0 days  3 hours 20 minutes 33.6 seconds.
 Elapsed time:       0 days  0 hours  9 minutes 22.6 seconds.
 File lengths (MBytes):  RWF=    124 Int=      0 D2E=      0 Chk=      7 Scr=      2
 Normal termination of Gaussian 16 at Fri Jun 18 20:18:58 2021.
